# vtk DataFile Version 4.2
vtk output
ASCII
DATASET UNSTRUCTURED_GRID
POINTS 768 float
-0.349876 -0.184687 3.12213 -0.455735 -0.489423 3.07701 -0.701995 -0.319367 3.12299 
-1.67236 -2.20511 11.1776 -1.64061 -2.41736 11.4835 -1.92191 -2.17692 11.3903 
-1.30553 -0.164947 8.011 -1.25494 0.0853278 8.24299 -1.20863 0.168307 7.96286 
0.118588 -0.226319 10.9955 0.316609 -0.532803 10.808 0.25733 -0.154443 10.6596 
0.0245239 0.0946719 10.8023 0.146288 0.167216 10.4857 -0.254283 0.291755 10.9323 
-0.114601 0.356815 10.5932 0.335621 -0.981864 10.8252 0.304662 -1.2921 10.655 
0.422129 -1.07824 10.5001 -0.46111 0.496563 10.7183 -0.858832 0.551003 10.7587 
-0.707184 0.614022 10.4312 -1.0398 0.560786 3.29716 -0.9526 0.873263 3.34488 
-0.644994 0.53503 3.26584 -1.04756 0.556006 10.4877 -0.899642 -0.0719654 3.17894 
-0.729815 0.135419 3.20299 -0.623994 -0.0593438 3.16233 -1.65186 -0.214888 9.74406 
-1.79463 -0.565606 9.98931 -1.72552 -0.122331 10.0996 -0.150356 -0.585116 3.03977 
-1.90051 -0.924004 13.2925 -2.1856 -0.686127 13.2465 -2.20639 -1.06893 13.0538 
-1.47156 -1.53503 13.242 -1.29396 -1.32871 13.4384 -1.58733 -1.18963 13.341 
-1.73372 -1.42865 13.1465 -1.02358 0.241877 3.24128 -1.43606 -1.69218 10.1014 
-1.48585 -1.48139 9.86614 -1.22696 -1.74144 9.89258 -2.84316 -0.817361 12.8186 
-2.75555 -0.786762 12.5363 -2.93883 -1.08986 12.6365 -2.94116 -1.68035 12.3558 
-2.84444 -1.97353 12.2709 -2.62336 -1.92846 12.4152 -1.23674 -1.88139 10.1771 
-1.54632 -1.75633 10.3675 -0.962059 -1.912 10.0165 -0.75694 1.15692 3.38027 
-0.605336 0.896116 3.32515 -0.285572 -1.90538 10.2696 -0.581938 -1.94309 10.0478 
-0.228991 -1.84012 9.99693 -0.088722 -1.80962 10.4876 0.0423601 -1.70565 10.1905 
-2.11716 -1.94586 11.3844 -1.89692 -1.98718 11.1514 -0.19717 0.476035 3.22521 
-0.439252 0.184615 3.19165 0.0451498 -0.241324 3.0855 -0.105013 0.0679707 3.14885 
0.341138 -1.37046 10.3157 0.142067 -1.58563 10.5791 0.501363 -1.02539 10.2742 
-0.338301 0.775233 3.2862 -0.478434 1.36748 3.39746 -0.290111 1.10101 3.33887 
-1.64757 -1.47385 10.1652 0.473809 -0.760535 10.4716 0.413428 -0.351339 10.4891 
-0.489048 0.972998 6.85054 -0.247553 1.05123 6.96349 -0.285713 1.07299 6.66508 
-0.771886 0.779771 6.95212 -0.646457 0.9066 6.60301 -1.69272 -0.908187 9.77463 
-1.80847 -0.925088 10.0681 0.378179 -0.0798028 10.3418 0.0340154 0.419888 10.2311 
-1.87126 -0.356114 10.3036 -1.95992 -0.748691 10.3984 -0.304203 0.560629 10.3475 
-0.0448453 0.829574 3.27555 -1.78294 -0.0211664 10.5144 -1.54958 0.211044 10.2219 
0.487813 0.273126 3.1437 0.21293 -0.00271448 3.11505 0.115464 0.273107 3.16906 
0.868201 -0.155098 3.04425 0.560488 -0.418347 3.02 0.520205 -0.047579 3.08642 
-1.17284 -1.67368 13.3426 -1.3675 -1.81735 13.1663 -1.00461 0.598678 10.1187 
-1.04106 -1.44878 13.5223 -0.974749 -1.12988 13.3279 -1.13456 -1.20544 13.5854 
-1.17049 -0.847615 13.4161 -1.27364 -0.963382 13.6226 -1.32431 0.406092 10.0085 
-1.30587 0.440872 10.3542 0.169704 1.2288 3.3295 -1.52493 0.287426 10.5467 
-1.41279 -0.553875 13.3971 -1.45449 -0.739286 13.628 -1.54385 0.117395 9.87744 
-1.68154 -0.334383 13.2935 -1.67302 -0.554028 13.5941 -1.63685 -0.569363 9.53999 
-1.98343 -0.270284 13.2214 -2.2507 -0.283366 13.0386 -2.22462 -0.368134 13.3752 
-1.28772 0.445691 10.7937 -0.177579 1.48923 3.39788 -1.69183 -1.17089 9.949 
-1.53883 -1.22125 9.64519 -2.46972 -0.424738 13.2121 -1.24071 -1.54274 9.52401 
-2.50022 -0.422787 12.8752 -1.01681 0.474702 11.1307 -0.87224 -1.79853 9.66149 
-2.80708 -1.04143 12.3107 0.619048 0.700852 3.20822 0.861287 0.408334 3.14148 
-2.31942 -1.38096 12.8433 -1.98058 -1.44193 13.0029 -0.397922 -1.83334 9.71695 
0.137834 1.54177 3.38542 -0.617108 0.444044 11.0402 -2.97114 -1.37051 12.4857 
-1.87031 -1.22066 13.169 -2.82641 -1.39509 12.1687 -2.76387 -1.70225 12.0698 
-2.64604 -2.00819 12.0252 -2.40501 -2.05604 11.7792 -2.44718 -2.29871 12.004 
-2.69803 -2.23631 12.228 -2.25547 -2.26983 11.7929 -2.16034 -2.54164 12.0017 
-2.51501 -2.46102 12.2235 -2.11814 -1.76833 12.772 -1.8849 -2.04108 12.7727 
-1.66471 -1.80546 13.0066 -2.31296 -2.64205 12.2502 0.583713 1.11218 3.28127 
0.326908 0.892672 3.26106 -0.113312 0.00919828 11.1515 0.471424 1.52307 3.35949 
-1.80971 -2.87942 12.4178 -2.06872 -2.79314 12.3146 -1.76259 -2.7457 12.1183 
0.966139 0.687916 3.18236 -1.54648 -2.80203 12.2947 0.309904 0.205319 10.128 
0.505538 -0.0253883 10.0134 -1.55481 -2.88113 12.5588 -1.29488 -2.74049 12.4413 
-1.33343 -2.79052 12.7248 -1.02386 -2.52288 12.6417 0.895616 0.92219 3.2274 
-1.16544 -2.6246 12.8968 -2.67111 -1.36151 12.6569 -1.16951 -1.95417 13.2117 
-0.894144 -2.25304 12.8844 -1.06152 -2.43321 13.0451 -1.30872 -2.14716 13.043 
-0.998168 -2.21743 13.1825 -0.848604 -1.90553 13.1131 0.778836 1.42659 3.32198 
-0.97008 -1.96058 13.3196 -0.986988 -1.69292 13.4369 1.21586 0.892758 3.20053 
-0.160023 0.63405 9.94395 -0.824918 -1.49551 13.1798 0.174695 -0.59998 11.1514 
-0.0208382 -0.305658 11.3278 -0.584343 0.680149 10.073 -0.955971 -0.867374 13.1722 
0.26512 -0.781542 11.014 -1.93188 -0.419844 13.5136 -1.92625 -0.6277 13.4184 
-1.41428 -0.311549 13.1248 -1.12006 -0.558083 13.1346 -1.68084 -0.155412 13.0118 
-2.43146 -0.771198 13.0695 -2.67916 -0.577865 13.0232 -2.58799 -1.00634 12.8712 
0.187437 -0.970685 11.2219 0.16021 -1.42597 10.9908 -1.55004 -0.944948 9.41837 
-2.73225 -1.61588 12.5025 -2.68592 -0.621715 12.7416 -0.332149 -1.97133 10.5769 
0.00164804 -1.70727 9.74267 0.312281 -1.48457 9.9019 -0.93232 -2.06067 10.3768 
-1.22097 -2.13317 10.6747 -1.30759 -1.9862 10.4497 0.534377 -1.13796 9.98819 
0.602956 -0.790307 10.0819 0.557567 -0.409004 10.1751 -1.63212 -0.838078 13.4825 
0.429631 0.256263 9.81444 0.180284 0.451177 9.92398 -1.84217 -1.1666 10.278 
-1.37011 -2.69455 12.0894 -0.828496 0.686915 9.72789 -1.08269 -2.59612 12.3215 
-0.826858 -2.37672 12.334 -1.1395 0.529849 9.7032 -1.37435 0.301431 9.67745 
-0.806269 -2.26817 12.6119 -1.47962 0.0787375 9.51653 -0.718909 -2.01222 12.7716 
-0.680312 -1.71914 12.8982 -1.39257 -1.23818 9.31695 -0.532153 -1.74098 9.29543 
-0.756995 -1.09478 13.0171 -1.66415 0.205403 10.9299 -1.38474 0.376151 11.256 
-0.11995 -1.70855 9.34798 -0.742948 0.353617 11.4227 -2.04382 -0.166619 12.9164 
0.622874 0.0298145 9.68137 -0.405866 0.223449 11.2837 -0.501727 0.740378 9.72894 
-2.54216 -0.497357 12.4819 -2.65806 -0.724149 12.3 -2.07426 -1.72839 11.1449 
-2.23733 -1.44919 11.2087 -2.02801 -1.51284 10.8979 -1.77477 -1.7695 10.734 
-1.83405 -1.45489 10.4984 -2.34182 -2.26726 12.4115 -2.31076 -1.95177 12.578 
-2.07523 -2.13033 12.6246 -2.63358 -1.44533 11.8326 -2.5587 -1.77774 11.8094 
-1.63042 -2.22427 12.8275 -1.26006 0.380943 9.37998 -2.24199 -1.70149 11.3658 
-2.18267 -2.11958 11.5991 -1.98189 -2.38681 11.6793 -1.86968 -2.28691 12.6648 
-1.66366 -2.59247 11.7971 -2.47115 -1.67609 12.6193 -1.52952 -0.632854 9.20707 
-1.55563 -0.302589 9.35308 -2.02588 -2.49961 12.4773 -1.19317 -1.43894 9.22697 
-1.35225 -2.452 12.8745 -1.6398 -2.56741 12.66 -0.909925 -1.64171 9.25643 
0.2365 -1.56217 9.46572 0.532569 -1.26643 9.61758 0.65166 -0.258902 9.85182 
0.706622 -0.522542 9.79162 -0.0894324 -1.80369 10.8535 -0.39303 -2.03669 10.8514 
-0.972582 -0.393572 12.8511 -0.827759 -0.696686 12.9187 -0.565871 -2.02778 10.3822 
-0.641956 -2.11417 10.6533 -1.15666 -0.120979 12.7254 -1.38018 -0.151243 12.9112 
-1.20339 -0.292195 12.9616 0.0495602 1.3692 4.74224 0.381456 1.36303 4.66732 
0.0119053 1.41052 4.37562 -1.52437 -1.97784 10.6726 0.2989 0.485256 9.6413 
0.124843 0.67993 9.41527 0.0645134 0.621783 9.68212 -2.23998 -0.21219 12.6687 
-0.211332 0.759287 9.51227 -0.642933 0.758902 9.46064 -0.970387 0.632783 9.43076 
-1.40548 0.0378874 9.11813 -2.62957 -0.840577 12.03 -2.68428 -1.118 11.9661 
-1.41158 -0.999587 9.06245 -1.26703 -1.26031 9.04045 -2.02205 -1.14438 10.6455 
-2.32244 -1.85186 11.5631 0.329636 -1.43368 6.88702 0.000591901 -1.50197 6.95064 
0.19683 -1.4116 6.59219 -0.646674 -1.64638 8.97334 -1.98277 -0.359855 10.6352 
-0.266252 -1.67859 8.9746 -1.00531 -2.52429 12.0337 0.142112 -1.59691 9.03174 
1.2201 0.514575 3.13529 1.05391 1.21526 3.26695 -1.92971 -0.108511 10.885 
0.50801 -1.35992 9.22356 0.719071 -1.01967 9.3732 0.676456 -0.920804 9.7261 
0.811207 -0.647243 9.41571 0.86407 -0.252692 9.21053 0.758906 -0.249994 9.54686 
0.521219 0.321742 9.51356 -1.49094 0.0265512 12.6648 0.72044 0.0776386 9.376 
-1.91419 -0.0486936 12.6986 -1.11901 0.390187 11.5158 -1.232 -0.625019 7.11781 
-1.26347 -0.17993 7.04165 -1.23528 -0.439758 6.74977 -2.50896 -0.549772 12.1225 
-1.24596 0.3246 9.04235 -2.48698 -0.6685 11.8191 -0.526835 0.12136 11.6348 
-0.251947 -0.0974713 11.5158 -0.994264 -1.47528 8.90531 -0.587781 -0.913065 12.7114 
-0.536371 -1.37752 12.7376 0.040006 -0.654749 11.4605 -2.43827 -1.51898 11.5545 
-0.168896 -0.38805 11.6674 0.0189796 -1.00638 11.6252 1.19267 0.378622 3.35104 
1.23115 0.611021 3.36817 1.13894 0.194552 3.51189 1.21629 0.478541 3.58866 
1.08792 0.157014 3.08289 0.97285 -0.0961221 3.39787 -0.730353 -2.32292 12.0131 
0.690277 -0.397535 3.35455 0.35194 -0.598407 3.35438 -0.61573 -2.18633 12.162 
-0.630286 -2.09503 12.4511 0.202897 -0.568215 3.01861 0.0132768 -0.663027 3.33989 
-0.337134 -0.608799 3.35663 -0.678779 -0.416448 3.4128 -0.935927 -0.0806748 3.42593 
0.057564 -1.34674 11.438 -1.05949 0.324564 3.57133 -1.01158 0.719284 3.61279 
-0.825444 1.05322 3.67007 -0.467471 1.34326 3.66749 -0.00924773 1.4912 3.67819 
0.370861 1.49798 3.66609 0.787819 1.38322 3.56296 1.09314 1.11865 3.49184 
1.1967 0.850447 3.63139 1.21688 0.620962 3.89144 1.13561 0.935165 3.97056 
1.18117 0.278601 3.83757 1.04491 -0.0579915 3.78922 0.838439 -0.332852 3.70347 
0.530212 -0.575831 3.64275 0.145542 -0.718003 3.63954 -0.209283 -0.71519 3.65888 
-0.569933 -0.576171 3.70974 -0.862677 -0.305113 3.76161 -1.04655 0.0924815 3.81399 
-1.07251 0.474016 3.90888 -2.5707 -0.933644 11.8016 -0.937271 0.870129 3.95384 
-0.621291 1.21604 3.95834 -0.237177 1.40157 4.00301 0.197283 1.46565 4.00635 
0.677179 1.38076 3.92175 0.996261 1.18073 3.80334 0.784946 -1.0437 8.95724 
[...]
CELL_DATA 2504
SCALARS ModelRegionID int
LOOKUP_TABLE default
1 1 1 1 1 1 1 1 1 
1 1 1 1 1 1 1 1 1 
1 1 1 1 1 1 1 1 1 
1 1 1 1 1 1 1 1 1 
1 1 1 1 1 1 1 1 1 
1 1 1 1 1 1 1 1 1 
1 1 1 1 1 1 1 1 1 
1 1 1 1 1 1 1 1 1 
1 1 1 1 1 1 1 1 1 
1 1 1 1 1 1 1 1 1 
1 1 1 1 1 1 1 1 1 
1 1 1 1 1 1 1 1 1 
1 1 1 1 1 1 1 1 1 
1 1 1 1 1 1 1 1 1 
1 1 1 1 1 1 1 1 1 
1 1 1 1 1 1 1 1 1 
1 1 1 1 1 1 1 1 1 
1 1 1 1 1 1 1 1 1 
1 1 1 1 1 1 1 1 1 
1 1 1 1 1 1 1 1 1 
1 1 1 1 1 1 1 1 1 
1 1 1 1 1 1 1 1 1 
1 1 1 1 1 1 1 1 1 
1 1 1 1 1 1 1 1 1 
1 1 1 1 1 1 1 1 1 
1 1 1 1 1 1 1 1 1 
1 1 1 1 1 1 1 1 1 
1 1 1 1 1 1 1 1 1 
1 1 1 1 1 1 1 1 1 
1 1 1 1 1 1 1 1 1 
1 1 1 1 1 1 1 1 1 
1 1 1 1 1 1 1 1 1 
1 1 1 1 1 1 1 1 1 
1 1 1 1 1 1 1 1 1 
1 1 1 1 1 1 1 1 1 
1 1 1 1 1 1 1 1 1 
1 1 1 1 1 1 1 1 1 
1 1 1 1 1 1 1 1 1 
1 1 1 1 1 1 1 1 1 
1 1 1 1 1 1 1 1 1 
1 1 1 1 1 1 1 1 1 
1 1 1 1 1 1 1 1 1 
1 1 1 1 1 1 1 1 1 
1 1 1 1 1 1 1 1 1 
1 1 1 1 1 1 1 1 1 
1 1 1 1 1 1 1 1 1 
1 1 1 1 1 1 1 1 1 
1 1 1 1 1 1 1 1 1 
1 1 1 1 1 1 1 1 1 
1 1 1 1 1 1 1 1 1 
1 1 1 1 1 1 1 1 1 
1 1 1 1 1 1 1 1 1 
1 1 1 1 1 1 1 1 1 
1 1 1 1 1 1 1 1 1 
1 1 1 1 1 1 1 1 1 
1 1 1 1 1 1 1 1 1 
1 1 1 1 1 1 1 1 1 
1 1 1 1 1 1 1 1 1 
1 1 1 1 1 1 1 1 1 
1 1 1 1 1 1 1 1 1 
1 1 1 1 1 1 1 1 1 
1 1 1 1 1 1 1 1 1 
1 1 1 1 1 1 1 1 1 
1 1 1 1 1 1 1 1 1 
1 1 1 1 1 1 1 1 1 
1 1 1 1 1 1 1 1 1 
1 1 1 1 1 1 1 1 1 
1 1 1 1 1 1 1 1 1 
1 1 1 1 1 1 1 1 1 
1 1 1 1 1 1 1 1 1 
1 1 1 1 1 1 1 1 1 
1 1 1 1 1 1 1 1 1 
1 1 1 1 1 1 1 1 1 
1 1 1 1 1 1 1 1 1 
1 1 1 1 1 1 1 1 1 
1 1 1 1 1 1 1 1 1 
1 1 1 1 1 1 1 1 1 
1 1 1 1 1 1 1 1 1 
1 1 1 1 1 1 1 1 1 
1 1 1 1 1 1 1 1 1 
1 1 1 1 1 1 1 1 1 
1 1 1 1 1 1 1 1 1 
1 1 1 1 1 1 1 1 1 
1 1 1 1 1 1 1 1 1 
1 1 1 1 1 1 1 1 1 
1 1 1 1 1 1 1 1 1 
1 1 1 1 1 1 1 1 1 
1 1 1 1 1 1 1 1 1 
1 1 1 1 1 1 1 1 1 
1 1 1 1 1 1 1 1 1 
1 1 1 1 1 1 1 1 1 
1 1 1 1 1 1 1 1 1 
1 1 1 1 1 1 1 1 1 
1 1 1 1 1 1 1 1 1 
1 1 1 1 1 1 1 1 1 
1 1 1 1 1 1 1 1 1 
1 1 1 1 1 1 1 1 1 
1 1 1 1 1 1 1 1 1 
1 1 1 1 1 1 1 1 1 
1 1 1 1 1 1 1 1 1 
1 1 1 1 1 1 1 1 1 
1 1 1 1 1 1 1 1 1 
1 1 1 1 1 1 1 1 1 
1 1 1 1 1 1 1 1 1 
1 1 1 1 1 1 1 1 1 
1 1 1 1 1 1 1 1 1 
1 1 1 1 1 1 1 1 1 
1 1 1 1 1 1 1 1 1 
1 1 1 1 1 1 1 1 1 
1 1 1 1 1 1 1 1 1 
1 1 1 1 1 1 1 1 1 
1 1 1 1 1 1 1 1 1 
1 1 1 1 1 1 1 1 1 
1 1 1 1 1 1 1 1 1 
1 1 1 1 1 1 1 1 1 
1 1 1 1 1 1 1 1 1 
1 1 1 1 1 1 1 1 1 
1 1 1 1 1 1 1 1 1 
1 1 1 1 1 1 1 1 1 
1 1 1 1 1 1 1 1 1 
1 1 1 1 1 1 1 1 1 
1 1 1 1 1 1 1 1 1 
1 1 1 1 1 1 1 1 1 
1 1 1 1 1 1 1 1 1 
1 1 1 1 1 1 1 1 1 
1 1 1 1 1 1 1 1 1 
1 1 1 1 1 1 1 1 1 
1 1 1 1 1 1 1 1 1 
1 1 1 1 1 1 1 1 1 
1 1 1 1 1 1 1 1 1 
1 1 1 1 1 1 1 1 1 
1 1 1 1 1 1 1 1 1 
1 1 1 1 1 1 1 1 1 
1 1 1 1 1 1 1 1 1 
1 1 1 1 1 1 1 1 1 
1 1 1 1 1 1 1 1 1 
1 1 1 1 1 1 1 1 1 
1 1 1 1 1 1 1 1 1 
1 1 1 1 1 1 1 1 1 
1 1 1 1 1 1 1 1 1 
1 1 1 1 1 1 1 1 1 
1 1 1 1 1 1 1 1 1 
1 1 1 1 1 1 1 1 1 
1 1 1 1 1 1 1 1 1 
1 1 1 1 1 1 1 1 1 
1 1 1 1 1 1 1 1 1 
1 1 1 1 1 1 1 1 1 
1 1 1 1 1 1 1 1 1 
1 1 1 1 1 1 1 1 1 
1 1 1 1 1 1 1 1 1 
1 1 1 1 1 1 1 1 1 
1 1 1 1 1 1 1 1 1 
1 1 1 1 1 1 1 1 1 
1 1 1 1 1 1 1 1 1 
1 1 1 1 1 1 1 1 1 
1 1 1 1 1 1 1 1 1 
1 1 1 1 1 1 1 1 1 
1 1 1 1 1 1 1 1 1 
1 1 1 1 1 1 1 1 1 
1 1 1 1 1 1 1 1 1 
1 1 1 1 1 1 1 1 1 
1 1 1 1 1 1 1 1 1 
1 1 1 1 1 1 1 1 1 
1 1 1 1 1 1 1 1 1 
1 1 1 1 1 1 1 1 1 
1 1 1 1 1 1 1 1 1 
1 1 1 1 1 1 1 1 1 
1 1 1 1 1 1 1 1 1 
1 1 1 1 1 1 1 1 1 
1 1 1 1 1 1 1 1 1 
1 1 1 1 1 1 1 1 1 
1 1 1 1 1 1 1 1 1 
1 1 1 1 1 1 1 1 1 
1 1 1 1 1 1 1 1 1 
1 1 1 1 1 1 1 1 1 
1 1 1 1 1 1 1 1 1 
1 1 1 1 1 1 1 1 1 
1 1 1 1 1 1 1 1 1 
1 1 1 1 1 1 1 1 1 
1 1 1 1 1 1 1 1 1 
1 1 1 1 1 1 1 1 1 
1 1 1 1 1 1 1 1 1 
1 1 1 1 1 1 1 1 1 
1 1 1 1 1 1 1 1 1 
1 1 1 1 1 1 1 1 1 
1 1 1 1 1 1 1 1 1 
1 1 1 1 1 1 1 1 1 
1 1 1 1 1 1 1 1 1 
1 1 1 1 1 1 1 1 1 
1 1 1 1 1 1 1 1 1 
1 1 1 1 1 1 1 1 1 
1 1 1 1 1 1 1 1 1 
1 1 1 1 1 1 1 1 1 
1 1 1 1 1 1 1 1 1 
1 1 1 1 1 1 1 1 1 
1 1 1 1 1 1 1 1 1 
1 1 1 1 1 1 1 1 1 
1 1 1 1 1 1 1 1 1 
1 1 1 1 1 1 1 1 1 
1 1 1 1 1 1 1 1 1 
1 1 1 1 1 1 1 1 1 
1 1 1 1 1 1 1 1 1 
1 1 1 1 1 1 1 1 1 
1 1 1 1 1 1 1 1 1 
1 1 1 1 1 1 1 1 1 
1 1 1 1 1 1 1 1 1 
1 1 1 1 1 1 1 1 1 
1 1 1 1 1 1 1 1 1 
1 1 1 1 1 1 1 1 1 
1 1 1 1 1 1 1 1 1 
1 1 1 1 1 1 1 1 1 
1 1 1 1 1 1 1 1 1 
1 1 1 1 1 1 1 1 1 
1 1 1 1 1 1 1 1 1 
1 1 1 1 1 1 1 1 1 
1 1 1 1 1 1 1 1 1 
1 1 1 1 1 1 1 1 1 
1 1 1 1 1 1 1 1 1 
1 1 1 1 1 1 1 1 1 
1 1 1 1 1 1 1 1 1 
1 1 1 1 1 1 1 1 1 
1 1 1 1 1 1 1 1 1 
1 1 1 1 1 1 1 1 1 
1 1 1 1 1 1 1 1 1 
1 1 1 1 1 1 1 1 1 
1 1 1 1 1 1 1 1 1 
1 1 1 1 1 1 1 1 1 
1 1 1 1 1 1 1 1 1 
1 1 1 1 1 1 1 1 1 
1 1 1 1 1 1 1 1 1 
1 1 1 1 1 1 1 1 1 
1 1 1 1 1 1 1 1 1 
1 1 1 1 1 1 1 1 1 
1 1 1 1 1 1 1 1 1 
1 1 1 1 1 1 1 1 1 
1 1 1 1 1 1 1 1 1 
1 1 1 1 1 1 1 1 1 
1 1 1 1 1 1 1 1 1 
1 1 1 1 1 1 1 1 1 
1 1 1 1 1 1 1 1 1 
1 1 1 1 1 1 1 1 1 
1 1 1 1 1 1 1 1 1 
1 1 1 1 1 1 1 1 1 
1 1 1 1 1 1 1 1 1 
1 1 1 1 1 1 1 1 1 
1 1 1 1 1 1 1 1 1 
1 1 1 1 1 1 1 1 1 
1 1 1 1 1 1 1 1 1 
1 1 1 1 1 1 1 1 1 
1 1 1 1 1 1 1 1 1 
1 1 1 1 1 1 1 1 1 
1 1 1 1 1 1 1 1 1 
1 1 1 1 1 1 1 1 1 
1 1 1 1 1 1 1 1 1 
1 1 1 1 1 1 1 1 1 
1 1 1 1 1 1 1 1 1 
1 1 1 1 1 1 1 1 1 
1 1 1 1 1 1 1 1 1 
1 1 1 1 1 1 1 1 1 
1 1 1 1 1 1 1 1 1 
1 1 1 1 1 1 1 1 1 
1 1 1 1 1 1 1 1 1 
1 1 1 1 1 1 1 1 1 
1 1 1 1 1 1 1 1 1 
1 1 1 1 1 1 1 1 1 
1 1 1 1 1 1 1 1 1 
1 1 1 1 1 1 1 1 1 
1 1 1 1 1 1 1 1 1 
1 1 1 1 1 1 1 1 1 
1 1 1 1 1 1 1 1 1 
1 1 1 1 1 1 1 1 1 
1 1 1 1 1 1 1 1 1 
1 1 1 1 1 1 1 1 1 
1 1 1 1 1 1 1 1 1 
1 1 1 1 1 1 1 1 1 
1 1 1 1 1 1 1 1 1 
1 1 1 1 1 1 1 1 1 
1 1 1 1 1 1 1 1 1 
1 1 
FIELD FieldData 1
GlobalElementID 1 2504 int
1 2 3 4 5 6 7 8 9 
10 11 12 13 14 15 16 17 18 
19 20 21 22 23 24 25 26 27 
28 29 30 31 32 33 34 35 36 
37 38 39 40 41 42 43 44 45 
46 47 48 49 50 51 52 53 54 
55 56 57 58 59 60 61 62 63 
64 65 66 67 68 69 70 71 72 
73 74 75 76 77 78 79 80 81 
82 83 84 85 86 87 88 89 90 
91 92 93 94 95 96 97 98 99 
100 101 102 103 104 105 106 107 108 
109 110 111 112 113 114 115 116 117 
118 119 120 121 122 123 124 125 126 
127 128 129 130 131 132 133 134 135 
136 137 138 139 140 141 142 143 144 
145 146 147 148 149 150 151 152 153 
154 155 156 157 158 159 160 161 162 
163 164 165 166 167 168 169 170 171 
172 173 174 175 176 177 178 179 180 
181 182 183 184 185 186 187 188 189 
190 191 192 193 194 195 196 197 198 
199 200 201 202 203 204 205 206 207 
208 209 210 211 212 213 214 215 216 
217 218 219 220 221 222 223 224 225 
226 227 228 229 230 231 232 233 234 
235 236 237 238 239 240 241 242 243 
244 245 246 247 248 249 250 251 252 
253 254 255 256 257 258 259 260 261 
262 263 264 265 266 267 268 269 270 
271 272 273 274 275 276 277 278 279 
280 281 282 283 284 285 286 287 288 
289 290 291 292 293 294 295 296 297 
298 299 300 301 302 303 304 305 306 
307 308 309 310 311 312 313 314 315 
316 317 318 319 320 321 322 323 324 
325 326 327 328 329 330 331 332 333 
334 335 336 337 338 339 340 341 342 
343 344 345 346 347 348 349 350 351 
352 353 354 355 356 357 358 359 360 
361 362 363 364 365 366 367 368 369 
370 371 372 373 374 375 376 377 378 
379 380 381 382 383 384 385 386 387 
388 389 390 391 392 393 394 395 396 
397 398 399 400 401 402 403 404 405 
406 407 408 409 410 411 412 413 414 
415 416 417 418 419 420 421 422 423 
424 425 426 427 428 429 430 431 432 
433 434 435 436 437 438 439 440 441 
442 443 444 445 446 447 448 449 450 
451 452 453 454 455 456 457 458 459 
460 461 462 463 464 465 466 467 468 
469 470 471 472 473 474 475 476 477 
478 479 480 481 482 483 484 485 486 
487 488 489 490 491 492 493 494 495 
496 497 498 499 500 501 502 503 504 
505 506 507 508 509 510 511 512 513 
514 515 516 517 518 519 520 521 522 
523 524 525 526 527 528 529 530 531 
532 533 534 535 536 537 538 539 540 
541 542 543 544 545 546 547 548 549 
550 551 552 553 554 555 556 557 558 
559 560 561 562 563 564 565 566 567 
568 569 570 571 572 573 574 575 576 
577 578 579 580 581 582 583 584 585 
586 587 588 589 590 591 592 593 594 
595 596 597 598 599 600 601 602 603 
604 605 606 607 608 609 610 611 612 
613 614 615 616 617 618 619 620 621 
622 623 624 625 626 627 628 629 630 
631 632 633 634 635 636 637 638 639 
640 641 642 643 644 645 646 647 648 
649 650 651 652 653 654 655 656 657 
658 659 660 661 662 663 664 665 666 
667 668 669 670 671 672 673 674 675 
676 677 678 679 680 681 682 683 684 
685 686 687 688 689 690 691 692 693 
694 695 696 697 698 699 700 701 702 
703 704 705 706 707 708 709 710 711 
712 713 714 715 716 717 718 719 720 
721 722 723 724 725 726 727 728 729 
730 731 732 733 734 735 736 737 738 
739 740 741 742 743 744 745 746 747 
748 749 750 751 752 753 754 755 756 
757 758 759 760 761 762 763 764 765 
766 767 768 769 770 771 772 773 774 
775 776 777 778 779 780 781 782 783 
784 785 786 787 788 789 790 791 792 
793 794 795 796 797 798 799 800 801 
802 803 804 805 806 807 808 809 810 
811 812 813 814 815 816 817 818 819 
820 821 822 823 824 825 826 827 828 
829 830 831 832 833 834 835 836 837 
838 839 840 841 842 843 844 845 846 
847 848 849 850 851 852 853 854 855 
856 857 858 859 860 861 862 863 864 
865 866 867 868 869 870 871 872 873 
874 875 876 877 878 879 880 881 882 
883 884 885 886 887 888 889 890 891 
892 893 894 895 896 897 898 899 900 
901 902 903 904 905 906 907 908 909 
910 911 912 913 914 915 916 917 918 
919 920 921 922 923 924 925 926 927 
928 929 930 931 932 933 934 935 936 
937 938 939 940 941 942 943 944 945 
946 947 948 949 950 951 952 953 954 
955 956 957 958 959 960 961 962 963 
964 965 966 967 968 969 970 971 972 
973 974 975 976 977 978 979 980 981 
982 983 984 985 986 987 988 989 990 
991 992 993 994 995 996 997 998 999 
1000 1001 1002 1003 1004 1005 1006 1007 1008 
1009 1010 1011 1012 1013 1014 1015 1016 1017 
1018 1019 1020 1021 1022 1023 1024 1025 1026 
1027 1028 1029 1030 1031 1032 1033 1034 1035 
1036 1037 1038 1039 1040 1041 1042 1043 1044 
1045 1046 1047 1048 1049 1050 1051 1052 1053 
1054 1055 1056 1057 1058 1059 1060 1061 1062 
1063 1064 1065 1066 1067 1068 1069 1070 1071 
1072 1073 1074 1075 1076 1077 1078 1079 1080 
1081 1082 1083 1084 1085 1086 1087 1088 1089 
1090 1091 1092 1093 1094 1095 1096 1097 1098 
1099 1100 1101 1102 1103 1104 1105 1106 1107 
1108 1109 1110 1111 1112 1113 1114 1115 1116 
1117 1118 1119 1120 1121 1122 1123 1124 1125 
1126 1127 1128 1129 1130 1131 1132 1133 1134 
1135 1136 1137 1138 1139 1140 1141 1142 1143 
1144 1145 1146 1147 1148 1149 1150 1151 1152 
1153 1154 1155 1156 1157 1158 1159 1160 1161 
1162 1163 1164 1165 1166 1167 1168 1169 1170 
1171 1172 1173 1174 1175 1176 1177 1178 1179 
1180 1181 1182 1183 1184 1185 1186 1187 1188 
1189 1190 1191 1192 1193 1194 1195 1196 1197 
1198 1199 1200 1201 1202 1203 1204 1205 1206 
1207 1208 1209 1210 1211 1212 1213 1214 1215 
1216 1217 1218 1219 1220 1221 1222 1223 1224 
1225 1226 1227 1228 1229 1230 1231 1232 1233 
1234 1235 1236 1237 1238 1239 1240 1241 1242 
1243 1244 1245 1246 1247 1248 1249 1250 1251 
1252 1253 1254 1255 1256 1257 1258 1259 1260 
1261 1262 1263 1264 1265 1266 1267 1268 1269 
1270 1271 1272 1273 1274 1275 1276 1277 1278 
1279 1280 1281 1282 1283 1284 1285 1286 1287 
1288 1289 1290 1291 1292 1293 1294 1295 1296 
1297 1298 1299 1300 1301 1302 1303 1304 1305 
1306 1307 1308 1309 1310 1311 1312 1313 1314 
1315 1316 1317 1318 1319 1320 1321 1322 1323 
1324 1325 1326 1327 1328 1329 1330 1331 1332 
1333 1334 1335 1336 1337 1338 1339 1340 1341 
1342 1343 1344 1345 1346 1347 1348 1349 1350 
1351 1352 1353 1354 1355 1356 1357 1358 1359 
1360 1361 1362 1363 1364 1365 1366 1367 1368 
1369 1370 1371 1372 1373 1374 1375 1376 1377 
1378 1379 1380 1381 1382 1383 1384 1385 1386 
1387 1388 1389 1390 1391 1392 1393 1394 1395 
1396 1397 1398 1399 1400 1401 1402 1403 1404 
1405 1406 1407 1408 1409 1410 1411 1412 1413 
1414 1415 1416 1417 1418 1419 1420 1421 1422 
1423 1424 1425 1426 1427 1428 1429 1430 1431 
1432 1433 1434 1435 1436 1437 1438 1439 1440 
1441 1442 1443 1444 1445 1446 1447 1448 1449 
1450 1451 1452 1453 1454 1455 1456 1457 1458 
1459 1460 1461 1462 1463 1464 1465 1466 1467 
1468 1469 1470 1471 1472 1473 1474 1475 1476 
1477 1478 1479 1480 1481 1482 1483 1484 1485 
1486 1487 1488 1489 1490 1491 1492 1493 1494 
1495 1496 1497 1498 1499 1500 1501 1502 1503 
1504 1505 1506 1507 1508 1509 1510 1511 1512 
1513 1514 1515 1516 1517 1518 1519 1520 1521 
1522 1523 1524 1525 1526 1527 1528 1529 1530 
1531 1532 1533 1534 1535 1536 1537 1538 1539 
1540 1541 1542 1543 1544 1545 1546 1547 1548 
1549 1550 1551 1552 1553 1554 1555 1556 1557 
1558 1559 1560 1561 1562 1563 1564 1565 1566 
1567 1568 1569 1570 1571 1572 1573 1574 1575 
1576 1577 1578 1579 1580 1581 1582 1583 1584 
1585 1586 1587 1588 1589 1590 1591 1592 1593 
1594 1595 1596 1597 1598 1599 1600 1601 1602 
1603 1604 1605 1606 1607 1608 1609 1610 1611 
1612 1613 1614 1615 1616 1617 1618 1619 1620 
1621 1622 1623 1624 1625 1626 1627 1628 1629 
1630 1631 1632 1633 1634 1635 1636 1637 1638 
1639 1640 1641 1642 1643 1644 1645 1646 1647 
1648 1649 1650 1651 1652 1653 1654 1655 1656 
1657 1658 1659 1660 1661 1662 1663 1664 1665 
1666 1667 1668 1669 1670 1671 1672 1673 1674 
1675 1676 1677 1678 1679 1680 1681 1682 1683 
1684 1685 1686 1687 1688 1689 1690 1691 1692 
1693 1694 1695 1696 1697 1698 1699 1700 1701 
1702 1703 1704 1705 1706 1707 1708 1709 1710 
1711 1712 1713 1714 1715 1716 1717 1718 1719 
1720 1721 1722 1723 1724 1725 1726 1727 1728 
1729 1730 1731 1732 1733 1734 1735 1736 1737 
1738 1739 1740 1741 1742 1743 1744 1745 1746 
1747 1748 1749 1750 1751 1752 1753 1754 1755 
1756 1757 1758 1759 1760 1761 1762 1763 1764 
1765 1766 1767 1768 1769 1770 1771 1772 1773 
1774 1775 1776 1777 1778 1779 1780 1781 1782 
1783 1784 1785 1786 1787 1788 1789 1790 1791 
1792 1793 1794 1795 1796 1797 1798 1799 1800 
1801 1802 1803 1804 1805 1806 1807 1808 1809 
1810 1811 1812 1813 1814 1815 1816 1817 1818 
1819 1820 1821 1822 1823 1824 1825 1826 1827 
1828 1829 1830 1831 1832 1833 1834 1835 1836 
1837 1838 1839 1840 1841 1842 1843 1844 1845 
1846 1847 1848 1849 1850 1851 1852 1853 1854 
1855 1856 1857 1858 1859 1860 1861 1862 1863 
1864 1865 1866 1867 1868 1869 1870 1871 1872 
1873 1874 1875 1876 1877 1878 1879 1880 1881 
1882 1883 1884 1885 1886 1887 1888 1889 1890 
1891 1892 1893 1894 1895 1896 1897 1898 1899 
1900 1901 1902 1903 1904 1905 1906 1907 1908 
1909 1910 1911 1912 1913 1914 1915 1916 1917 
1918 1919 1920 1921 1922 1923 1924 1925 1926 
1927 1928 1929 1930 1931 1932 1933 1934 1935 
1936 1937 1938 1939 1940 1941 1942 1943 1944 
1945 1946 1947 1948 1949 1950 1951 1952 1953 
1954 1955 1956 1957 1958 1959 1960 1961 1962 
1963 1964 1965 1966 1967 1968 1969 1970 1971 
1972 1973 1974 1975 1976 1977 1978 1979 1980 
1981 1982 1983 1984 1985 1986 1987 1988 1989 
1990 1991 1992 1993 1994 1995 1996 1997 1998 
1999 2000 2001 2002 2003 2004 2005 2006 2007 
2008 2009 2010 2011 2012 2013 2014 2015 2016 
2017 2018 2019 2020 2021 2022 2023 2024 2025 
2026 2027 2028 2029 2030 2031 2032 2033 2034 
2035 2036 2037 2038 2039 2040 2041 2042 2043 
2044 2045 2046 2047 2048 2049 2050 2051 2052 
2053 2054 2055 2056 2057 2058 2059 2060 2061 
2062 2063 2064 2065 2066 2067 2068 2069 2070 
2071 2072 2073 2074 2075 2076 2077 2078 2079 
2080 2081 2082 2083 2084 2085 2086 2087 2088 
2089 2090 2091 2092 2093 2094 2095 2096 2097 
2098 2099 2100 2101 2102 2103 2104 2105 2106 
2107 2108 2109 2110 2111 2112 2113 2114 2115 
2116 2117 2118 2119 2120 2121 2122 2123 2124 
2125 2126 2127 2128 2129 2130 2131 2132 2133 
2134 2135 2136 2137 2138 2139 2140 2141 2142 
2143 2144 2145 2146 2147 2148 2149 2150 2151 
2152 2153 2154 2155 2156 2157 2158 2159 2160 
2161 2162 2163 2164 2165 2166 2167 2168 2169 
2170 2171 2172 2173 2174 2175 2176 2177 2178 
2179 2180 2181 2182 2183 2184 2185 2186 2187 
2188 2189 2190 2191 2192 2193 2194 2195 2196 
2197 2198 2199 2200 2201 2202 2203 2204 2205 
2206 2207 2208 2209 2210 2211 2212 2213 2214 
2215 2216 2217 2218 2219 2220 2221 2222 2223 
2224 2225 2226 2227 2228 2229 2230 2231 2232 
2233 2234 2235 2236 2237 2238 2239 2240 2241 
2242 2243 2244 2245 2246 2247 2248 2249 2250 
2251 2252 2253 2254 2255 2256 2257 2258 2259 
2260 2261 2262 2263 2264 2265 2266 2267 2268 
2269 2270 2271 2272 2273 2274 2275 2276 2277 
2278 2279 2280 2281 2282 2283 2284 2285 2286 
2287 2288 2289 2290 2291 2292 2293 2294 2295 
2296 2297 2298 2299 2300 2301 2302 2303 2304 
2305 2306 2307 2308 2309 2310 2311 2312 2313 
2314 2315 2316 2317 2318 2319 2320 2321 2322 
2323 2324 2325 2326 2327 2328 2329 2330 2331 
2332 2333 2334 2335 2336 2337 2338 2339 2340 
2341 2342 2343 2344 2345 2346 2347 2348 2349 
2350 2351 2352 2353 2354 2355 2356 2357 2358 
2359 2360 2361 2362 2363 2364 2365 2366 2367 
2368 2369 2370 2371 2372 2373 2374 2375 2376 
2377 2378 2379 2380 2381 2382 2383 2384 2385 
2386 2387 2388 2389 2390 2391 2392 2393 2394 
2395 2396 2397 2398 2399 2400 2401 2402 2403 
2404 2405 2406 2407 2408 2409 2410 2411 2412 
2413 2414 2415 2416 2417 2418 2419 2420 2421 
2422 2423 2424 2425 2426 2427 2428 2429 2430 
2431 2432 2433 2434 2435 2436 2437 2438 2439 
2440 2441 2442 2443 2444 2445 2446 2447 2448 
2449 2450 2451 2452 2453 2454 2455 2456 2457 
2458 2459 2460 2461 2462 2463 2464 2465 2466 
2467 2468 2469 2470 2471 2472 2473 2474 2475 
2476 2477 2478 2479 2480 2481 2482 2483 2484 
2485 2486 2487 2488 2489 2490 2491 2492 2493 
2494 2495 2496 2497 2498 2499 2500 2501 2502 
2503 2504 
POINT_DATA 768
FIELD FieldData 1
GlobalNodeID 1 768 int
1 2 3 4 5 6 7 8 9 
10 11 12 13 14 15 16 17 18 
19 20 21 22 23 24 25 26 27 
28 29 30 31 32 33 34 35 36 
37 38 39 40 41 42 43 44 45 
46 47 48 49 50 51 52 53 54 
55 56 57 58 59 60 61 62 63 
64 65 66 67 68 69 70 71 72 
73 74 75 76 77 78 79 80 81 
82 83 84 85 86 87 88 89 90 
91 92 93 94 95 96 97 98 99 
100 101 102 103 104 105 106 107 108 
109 110 111 112 113 114 115 116 117 
118 119 120 121 122 123 124 125 126 
127 128 129 130 131 132 133 134 135 
136 137 138 139 140 141 142 143 144 
145 146 147 148 149 150 151 152 153 
154 155 156 157 158 159 160 161 162 
163 164 165 166 167 168 169 170 171 
172 173 174 175 176 177 178 179 180 
181 182 183 184 185 186 187 188 189 
190 191 192 193 194 195 196 197 198 
199 200 201 202 203 204 205 206 207 
208 209 210 211 212 213 214 215 216 
217 218 219 220 221 222 223 224 225 
226 227 228 229 230 231 232 233 234 
235 236 237 238 239 240 241 242 243 
244 245 246 247 248 249 250 251 252 
253 254 255 256 257 258 259 260 261 
262 263 264 265 266 267 268 269 270 
271 272 273 274 275 276 277 278 279 
280 281 282 283 284 285 286 287 288 
289 290 291 292 293 294 295 296 297 
298 299 300 301 302 303 304 305 306 
307 308 309 310 311 312 313 314 315 
316 317 318 319 320 321 322 323 324 
325 326 327 328 329 330 331 332 333 
334 335 336 337 338 339 340 341 342 
343 344 345 346 347 348 349 350 351 
352 353 354 355 356 357 358 359 360 
361 362 363 364 365 366 367 368 369 
370 371 372 373 374 375 376 377 378 
379 380 381 382 383 384 385 386 387 
388 389 390 391 392 393 394 395 396 
397 398 399 400 401 402 403 404 405 
406 407 408 409 410 411 412 413 414 
415 416 417 418 419 420 421 422 423 
424 425 426 427 428 429 430 431 432 
433 434 435 436 437 438 439 440 441 
442 443 444 445 446 447 448 449 450 
451 452 453 454 455 456 457 458 459 
460 461 462 463 464 465 466 467 468 
469 470 471 472 473 474 475 476 477 
478 479 480 481 482 483 484 485 486 
487 488 489 490 491 492 493 494 495 
496 497 498 499 500 501 502 503 504 
505 506 507 508 509 510 511 512 513 
514 515 516 517 518 519 520 521 522 
523 524 525 526 527 528 529 530 531 
532 533 534 535 536 537 538 539 540 
541 542 543 544 545 546 547 548 549 
550 551 552 553 554 555 556 557 558 
559 560 561 562 563 564 565 566 567 
568 569 570 571 572 573 574 575 576 
577 578 579 580 581 582 583 584 585 
586 587 588 589 590 591 592 593 594 
595 596 597 598 599 600 601 602 603 
604 605 606 607 608 609 610 611 612 
613 614 615 616 617 618 619 620 621 
622 623 624 625 626 627 628 629 630 
631 632 633 634 635 636 637 638 639 
640 641 642 643 644 645 646 647 648 
649 650 651 652 653 654 655 656 657 
658 659 660 661 662 663 664 665 666 
667 668 669 670 671 672 673 674 675 
676 677 678 679 680 681 682 683 684 
685 686 687 688 689 690 691 692 693 
694 695 696 697 698 699 700 701 702 
703 704 705 706 707 708 709 710 711 
712 713 714 715 716 717 718 719 720 