# vtk DataFile Version 4.2
vtk output
ASCII
DATASET POLYDATA
POINTS 125 float
-0.0125118 0.126935 5.49705 -0.0136991 0.120878 5.53076 -0.0138657 0.119407 5.53906 
-0.0138146 0.118731 5.54294 -0.0130424 0.116196 5.55717 -0.0154238 0.0905763 5.66613 
-0.0152891 0.0763212 5.735 -0.0152864 0.076309 5.73507 -0.0151768 0.0758134 5.73784 
-0.0165307 0.0520311 5.83504 -0.0165305 0.0520241 5.83506 -0.0165028 0.0511519 5.83839 
-0.0163877 0.0363076 5.91597 -0.0160109 0.0328963 5.93578 -0.0160788 0.0322722 5.93925 
-0.0169247 0.00928664 6.02118 -0.0155227 -0.0121311 6.09919 -0.0148756 -0.0148953 6.1149 
-0.0145818 -0.0291239 6.19229 -0.014956 -0.0363503 6.22266 -0.0146443 -0.0448979 6.25614 
-0.0128348 -0.0551314 6.2963 -0.0124836 -0.0637727 6.33826 -0.0116018 -0.0768793 6.39023 
-0.0115957 -0.0769526 6.39048 -0.0112226 -0.0814563 6.40599 -0.0126049 -0.0944917 6.45712 
-0.0125961 -0.0945658 6.45743 -0.0118743 -0.100669 6.48294 -0.0113273 -0.107163 6.51012 
-0.0113498 -0.108076 6.51395 -0.0117763 -0.113067 6.53493 -0.0144622 -0.126178 6.59025 
-0.0149686 -0.127528 6.59738 -0.0167667 -0.145293 6.69819 -0.0182294 -0.148854 6.71728 
-0.0217056 -0.15974 6.76648 -0.0220323 -0.161577 6.7742 -0.0318449 -0.186053 6.91217 
-0.0354546 -0.194333 6.95877 -0.0401851 -0.204464 7.02577 -0.0507707 -0.226417 7.12082 
-0.050803 -0.226484 7.12126 -0.0539175 -0.22948 7.15162 -0.0580321 -0.236513 7.20001 
-0.0644929 -0.245061 7.2641 -0.0710459 -0.253729 7.31784 -0.0782212 -0.259868 7.37564 
-0.0814905 -0.264385 7.41558 -0.0822164 -0.265063 7.42207 -0.0889193 -0.275884 7.48289 
-0.104442 -0.292976 7.5872 -0.108568 -0.299917 7.63646 -0.108736 -0.300131 7.63775 
-0.129268 -0.314718 7.77493 -0.130201 -0.315577 7.77973 -0.144515 -0.329106 7.88532 
-0.155362 -0.341635 7.95981 -0.169582 -0.355165 8.0578 -0.178241 -0.363489 8.11588 
-0.199825 -0.377513 8.24896 -0.201892 -0.378388 8.25927 -0.205571 -0.38162 8.2868 
-0.212971 -0.387505 8.33396 -0.21999 -0.391586 8.36825 -0.234974 -0.401884 8.46318 
-0.243173 -0.410708 8.5112 -0.250253 -0.413067 8.54849 -0.272188 -0.428108 8.68194 
-0.27577 -0.429768 8.69819 -0.276179 -0.429903 8.6998 -0.284781 -0.433422 8.74127 
-0.293289 -0.437296 8.78589 -0.296491 -0.438682 8.8046 -0.302183 -0.441001 8.84097 
-0.319034 -0.458468 8.92783 -0.319054 -0.458478 8.92793 -0.324177 -0.461 8.9529 
-0.332045 -0.464397 9.00085 -0.336781 -0.46603 9.02139 -0.350184 -0.472503 9.08567 
-0.369276 -0.493205 9.18208 -0.37889 -0.496577 9.22168 -0.391278 -0.501578 9.2819 
-0.402264 -0.510275 9.32981 -0.402334 -0.510346 9.33016 -0.411046 -0.519174 9.37382 
-0.424751 -0.527091 9.43036 -0.451034 -0.542041 9.5413 -0.474146 -0.556089 9.63821 
-0.47774 -0.55826 9.65588 -0.492745 -0.569005 9.71201 -0.512745 -0.582917 9.78034 
-0.516299 -0.585517 9.79325 -0.552267 -0.607142 9.92675 -0.570679 -0.622439 9.99727 
-0.601141 -0.635566 10.0884 -0.615949 -0.649918 10.1405 -0.647229 -0.667562 10.2338 
-0.663599 -0.683704 10.2842 -0.695189 -0.706024 10.3725 -0.699826 -0.708764 10.3835 
-0.711292 -0.713482 10.4116 -0.720935 -0.717458 10.4373 -0.74463 -0.735391 10.5014 
-0.779453 -0.761932 10.5772 -0.7908 -0.770859 10.6045 -0.79726 -0.775332 10.6177 
-0.809707 -0.784151 10.6452 -0.847574 -0.808211 10.7224 -0.857666 -0.813589 10.7407 
-0.868909 -0.821633 10.7634 -0.887104 -0.833454 10.7962 -0.912527 -0.845737 10.8442 
-0.951595 -0.873116 10.911 -0.979982 -0.88682 10.9602 -0.990283 -0.892446 10.9803 
-1.03378 -0.911602 11.0594 -1.05083 -0.922632 11.0873 -1.10976 -0.966695 11.202 
-1.12291 -0.973451 11.2258 -1.13443 -0.973545 11.2463 -1.13305 -0.973247 11.255 
-0.00359032 0.325301 4.33215 -1.51701 -1.35103 12.229 
METADATA
INFORMATION 0

LINES 1 126
125 124 122 121 120 119 118 117 116 115 114 113 112 111 110 109 108 107 106 105 104 103 102 101 100 99 98 97 96 95 94 93 92 91 90 89 88 87 86 85 84 83 82 81 80 79 78 77 76 75 74 73 72 71 70 69 68 67 66 65 64 63 62 61 60 59 58 57 56 55 54 53 52 51 50 49 48 47 46 45 44 43 42 41 40 39 38 37 36 35 34 33 32 31 30 29 28 27 26 25 24 23 22 21 20 19 18 17 16 15 14 13 12 11 10 9 8 7 6 5 4 3 2 1 0 123 

POINT_DATA 125
FIELD FieldData 1
MaximumInscribedSphereRadius 1 125 double
1.1816995692 1.1853830454 1.1862257586 1.1865450708 1.187239816 1.1884124989 1.1929586981 1.1929627961 1.1931294484 
1.1956527201 1.1956540312 1.1958166027 1.2015569137 1.2026028814 1.2026782981 1.2045399965 1.2096692597 1.2105247882 
1.2139496892 1.2156843907 1.2176290359 1.2198775647 1.2212836129 1.2243217696 1.224341873 1.2255782305 1.2279980019 
1.2280060597 1.228669484 1.2298061413 1.2299346693 1.2305895292 1.2328035709 1.232994896 1.2347502723 1.2353546551 
1.2364866931 1.2364993231 1.2374764409 1.2369670702 1.2369920641 1.2370800586 1.237077029 1.2365367334 1.2361240605 
1.235984822 1.2355847612 1.2344381877 1.2335708958 1.2335219057 1.2328007807 1.2306189176 1.2297559671 1.2296487984 
1.226794188 1.2266608734 1.22298508 1.2198086093 1.216583596 1.2149097735 1.2103845535 1.2104196938 1.2092737816 
1.2072270517 1.2055982026 1.2016875098 1.2009809826 1.1987529341 1.1929307096 1.1925291395 1.1924721029 1.190111428 
1.1878487567 1.1872510455 1.1861991627 1.1817683729 1.1817669316 1.181408049 1.1802299466 1.1789955317 1.1759873007 
1.1720580425 1.1706082313 1.1686879973 1.1665187823 1.1665088321 1.1652750044 1.1640730147 1.1595588978 1.157859721 
1.1575302493 1.1548532252 1.1538443489 1.1537096952 1.1492347526 1.1479948498 1.1466968103 1.1447925914 1.1428945579 
1.1416652729 1.1407734048 1.1406388872 1.1397313846 1.1389853301 1.1377587198 1.1347554562 1.134138503 1.1335169808 
1.1313645651 1.1279780292 1.1276430455 1.1265494038 1.1250215715 1.122902035 1.1197317171 1.1197880074 1.1198864829 
1.1204910218 1.1202419472 1.1202858922 1.1208032774 1.1189535514 1.1130534216 1.1816995692 1.1130534216 
