# vtk DataFile Version 4.2
vtk output
ASCII
DATASET UNSTRUCTURED_GRID
POINTS 199 float
0.449907 -1.41515 9.01368 0.9529 -0.701576 8.66511 0.60212 -1.05194 9.73158 
-0.921542 0.824868 4.12514 -0.951847 0.815395 3.33489 -1.02608 0.14857 3.74333 
1.22513 0.841062 3.19102 1.13155 0.273396 3.0999 0.69572 0.587039 3.18345 
-0.318645 -1.59236 7.99635 -0.751877 -1.52787 8.59533 -1.09675 -1.13808 8.03476 
-0.649606 -1.3606 7.16832 0.383393 -1.47685 7.43754 1.1203 -0.193144 7.5803 
0.81527 0.343038 8.58271 -2.16313 -0.8957 13.1598 -2.39826 -0.402137 13.2626 
-2.8088 -0.753232 12.8681 -0.715324 -0.610481 12.7078 -1.17447 -0.0534682 12.5818 
-1.25978 -0.439372 13.163 -0.659873 0.872585 6.80749 0.161445 1.07045 6.91935 
-0.268783 1.14288 6.03982 0.993333 0.597149 6.70862 1.13461 -0.357293 6.47928 
1.13018 0.474547 5.58054 0.57318 1.07205 6.15019 0.467571 -1.45965 8.26235 
-0.568612 -1.6181 12.7362 -1.02371 -2.32243 13.1186 -0.903851 -2.4469 12.2716 
-1.50467 -0.126408 9.33804 -1.34235 -0.270601 8.34655 -1.3618 -1.01072 8.9671 
-0.84099 0.668202 8.72896 -1.4355 -1.48902 9.86268 -0.831993 -1.66512 9.28556 
-0.734513 -1.9257 10.0494 0.240511 0.652372 9.24348 0.150217 0.872407 8.447 
-1.16419 0.183089 6.52388 -1.04245 0.445796 7.49785 -2.4116 -1.48236 12.744 
-1.25538 -0.53191 7.33415 0.927492 -1.00984 7.85276 0.399063 1.28259 5.10604 
0.77098 -0.0619187 9.3322 0.937098 -0.957518 7.1124 -0.988745 -0.81115 6.18985 
-1.16669 0.0245855 5.56298 -0.757409 0.640819 10.0971 -2.29147 -2.13469 12.5022 
-2.90046 -1.8274 12.3089 -2.6495 -2.30165 12.2241 -1.09648 -1.31026 13.557 
-0.91888 -1.08084 13.2354 -1.38571 -0.815384 13.6303 -0.0188001 -1.69125 9.56657 
-0.182256 -1.65065 8.7671 -0.812288 0.920131 5.02871 -0.918894 0.706718 6.01224 
0.354364 -1.24319 6.1353 -0.0596348 1.07106 3.31803 -0.648352 1.24948 3.38877 
-0.123718 1.49818 3.39575 -1.85319 -0.133167 12.9236 0.99486 -0.543829 5.57708 
1.05339 -0.237086 4.80587 -1.85099 -0.454181 13.5424 -1.68791 -0.757024 9.73248 
-2.50106 -0.48051 12.53 0.338703 0.018702 10.284 -2.96712 -1.27729 12.5321 
-0.51949 -0.88734 4.95391 0.559023 -0.898196 5.12408 1.13034 0.742996 4.48851 
-1.07701 0.0337661 4.48377 -2.63123 -1.66258 11.9113 -1.79874 -0.106064 10.4662 
-2.55328 -0.923429 11.7896 -0.297947 0.298604 10.9479 0.599056 1.37993 4.04327 
-0.311616 1.3511 4.18297 -1.0952 0.435335 11.1204 0.443243 -0.743882 4.22592 
0.0940702 -0.46332 11.2393 0.404698 -0.926 10.6181 -1.94725 -1.07109 10.481 
-1.57446 -1.93347 10.6842 1.14374 0.879773 3.78906 0.926803 1.28469 3.28753 
-0.385443 0.190432 3.18898 -0.484947 0.720881 3.28686 0.0788339 0.579106 3.22411 
-2.32516 -2.16062 11.7815 -2.22704 -2.70278 12.2693 -0.658714 0.0136122 11.9118 
-0.608194 -2.17614 11.1859 -1.26836 -2.73865 12.7856 -0.169202 -0.95277 11.9996 
0.0871377 -1.36199 11.2965 0.0477357 -1.67518 10.3782 -0.528084 -0.608286 3.81458 
-1.88258 0.0325392 11.7291 -0.971193 -1.85403 13.3694 1.05856 0.0305558 3.79852 
-1.70273 -2.42563 11.5406 -0.357446 0.934169 7.72799 -0.30803 -1.79712 11.9873 
-2.1954 -0.692503 11.0265 0.604571 0.815105 7.63739 0.362503 -0.603137 3.46018 
-2.23884 -1.57601 11.2893 0.452536 1.5255 3.36119 0.202582 0.07394 3.12892 
-0.277733 -0.558612 3.053 -0.784365 -0.23195 3.14361 0.793775 -0.234579 3.03567 
0.307646 -0.53984 3.01635 -1.88221 -1.92821 12.8276 -1.82537 -2.45826 12.6084 
-1.50945 -2.2397 12.8875 -1.65593 -1.08505 13.3524 -1.42604 -1.74437 13.1683 
-1.71619 -2.89049 12.4646 0.441964 1.00648 3.27277 -1.02946 0.276811 3.24768 
-0.175141 -0.233571 3.10184 -1.91697 -1.425 13.0463 -1.68762 -0.844778 12.3958 
-0.682429 -0.701351 8.60543 -0.884043 -0.918401 9.63426 -0.11626 -0.202832 7.02701 
-0.852638 -1.05251 10.7541 0.00614347 -0.668231 7.90336 -1.48733 -1.90775 12.1226 
-0.34535 -1.15478 9.2431 -2.01021 -1.43098 12.1622 -0.1614 -0.966531 10.0206 
-1.3971 -1.22943 11.4897 -0.00229598 0.129308 4.03723 0.208861 0.348813 6.44844 
0.0182459 -0.948432 8.62849 -0.0330302 -0.0264165 8.56882 0.00523854 0.116665 5.19546 
-0.787883 -0.335241 11.1687 -0.521985 -1.39309 10.3283 -0.29604 -0.130686 3.63832 
-1.44198 -1.43209 12.583 -0.0806888 -0.318627 9.41134 -1.4684 -0.644835 10.8636 
-2.02161 -1.17422 12.6087 -0.332884 0.0939554 7.78518 -1.47184 -1.35627 12.0295 
-0.639816 -1.30202 11.5139 0.373049 -0.0879617 7.58997 -0.529407 0.35567 3.68402 
0.503674 0.288678 4.61489 0.215528 0.795072 3.91317 0.661709 0.760065 3.66425 
-0.79656 -0.309147 9.22287 -0.332802 -0.919895 11.1027 -0.157804 0.660935 3.63734 
-1.03825 -0.688591 11.9564 -0.634331 -0.213253 10.0655 -0.719049 -0.836752 10.2078 
0.348871 0.292529 3.62754 -1.60253 -1.03821 12.8534 -0.352151 0.604439 4.22137 
-1.56808 -0.834929 11.8487 -1.90681 -0.628806 12.8055 -0.467124 0.229918 6.59884 
-0.242639 0.412753 5.84543 -0.974526 -0.386077 10.5681 -1.14045 -0.948761 12.5277 
-0.0404719 0.454269 7.0525 -1.83342 -1.5168 11.6517 -2.24716 -1.84298 12.1281 
-0.388439 -1.02462 8.18903 -1.23765 -0.63277 11.4052 -0.558489 -0.517515 7.49196 
-0.219421 -0.481411 8.87376 0.495061 -0.706346 7.4965 0.0948252 -0.869553 9.50321 
-0.514909 -0.404748 8.09424 -1.08743 -1.27874 10.2753 -1.74862 -0.833344 11.324 
0.464923 0.209778 5.76805 0.376657 -0.35982 5.45315 -0.0246233 -0.267692 6.08396 
0.567329 -0.149046 6.2825 0.183343 -0.160173 3.55588 -0.927675 -1.67004 11.9426 
-0.56391 0.174751 7.21942 -0.303457 -0.470634 10.5971 0.385102 -0.457048 8.73074 
-0.196623 -1.01512 10.5728 
CELLS 725 3625
4 174 146 189 191 
4 59 103 140 148 
4 107 142 168 193 
4 73 52 151 166 
4 102 110 101 156 
4 37 35 71 133 
4 14 112 25 157 
4 71 133 167 187 
4 128 5 118 158 
4 83 77 159 160 
4 41 112 15 157 
4 99 102 148 156 
4 76 75 63 190 
4 149 93 158 164 
4 21 70 124 58 
4 82 52 166 175 
4 93 94 158 164 
4 133 140 166 167 
4 135 99 148 156 
4 159 142 160 168 
4 140 73 151 166 
4 142 159 160 170 
4 131 20 165 171 
4 96 53 122 179 
4 4 3 5 158 
4 83 66 115 160 
4 13 9 29 136 
4 29 9 144 180 
4 105 165 171 181 
4 90 108 141 178 
4 41 109 112 154 
4 24 28 143 174 
4 88 73 140 196 
4 155 139 171 178 
4 114 81 79 178 
4 64 95 127 160 
4 36 109 41 154 
4 86 76 69 159 
4 98 85 147 181 
4 107 8 7 168 
4 96 53 97 122 
4 0 144 185 197 
4 136 29 144 180 
4 136 145 154 186 
4 39 90 148 187 
4 46 157 184 197 
4 88 2 103 140 
4 127 115 64 160 
4 131 155 171 176 
4 80 33 52 166 
4 20 98 19 165 
4 34 36 162 186 
4 30 32 137 194 
4 159 160 161 168 
4 17 72 67 172 
4 34 43 36 154 
4 39 37 90 187 
4 152 141 181 188 
4 84 3 65 164 
4 132 133 138 162 
4 43 109 36 154 
4 19 21 20 176 
4 27 77 69 159 
4 99 135 141 156 
4 135 89 152 187 
4 16 17 70 172 
4 47 61 84 170 
4 0 60 59 138 
4 130 125 150 169 
4 183 151 185 197 
4 25 26 14 157 
4 151 36 52 40 
4 69 107 86 159 
4 135 147 152 181 
4 131 139 150 153 
4 29 9 60 144 
4 47 146 159 189 
4 148 140 167 198 
4 20 21 67 172 
4 91 83 92 161 
4 190 189 191 192 
4 79 74 44 139 
4 10 60 9 180 
4 94 4 128 158 
4 10 11 35 132 
4 132 35 133 162 
4 101 110 30 194 
4 68 189 190 192 
4 26 49 184 192 
4 32 123 30 137 
4 84 3 164 170 
4 143 134 173 191 
4 83 84 66 160 
4 85 105 152 181 
4 143 134 157 177 
4 156 141 165 181 
4 74 81 72 153 
4 46 29 136 184 
4 97 96 122 108 
4 10 11 132 180 
4 104 113 149 193 
4 166 82 175 196 
4 68 69 76 190 
4 134 157 184 192 
4 72 18 74 153 
4 135 141 156 181 
4 18 44 74 153 
4 44 130 121 153 
4 33 71 133 166 
4 103 39 99 148 
4 62 22 42 173 
4 60 10 144 180 
4 154 43 182 186 
4 25 27 26 192 
4 160 142 164 168 
4 36 151 52 162 
4 151 138 183 185 
4 51 75 146 191 
4 132 145 183 186 
4 101 19 98 165 
4 13 49 63 184 
4 105 98 20 165 
4 154 134 182 195 
4 150 155 176 194 
4 64 65 94 164 
4 52 40 73 151 
4 148 135 156 163 
4 157 26 184 192 
4 119 107 168 193 
4 102 148 156 163 
4 48 73 40 151 
4 52 73 82 166 
4 123 31 32 30 
4 103 140 148 198 
4 136 12 182 184 
4 11 180 182 186 
4 63 50 134 191 
4 131 150 155 176 
4 129 116 149 193 
4 23 22 143 177 
4 147 135 175 196 
4 137 141 108 178 
4 0 1 144 197 
4 42 45 173 195 
4 69 68 27 190 
4 142 160 164 170 
4 140 73 166 196 
4 92 8 6 161 
4 135 89 141 152 
4 44 16 130 153 
4 28 143 174 189 
4 66 64 115 160 
4 121 125 123 150 
4 63 49 26 192 
4 144 132 183 186 
4 45 11 12 182 
4 148 135 163 198 
4 7 8 119 168 
4 74 79 44 54 
4 64 95 160 164 
4 93 129 116 149 
4 121 130 125 150 
4 55 96 53 97 
4 80 85 152 175 
4 98 147 165 181 
4 36 41 145 154 
4 12 13 63 134 
4 145 136 183 186 
4 61 47 146 170 
4 3 158 164 170 
4 151 48 185 197 
4 150 137 155 194 
4 5 78 158 170 
4 1 14 46 157 
4 135 167 175 196 
4 17 72 16 18 
4 59 138 140 185 
4 107 113 86 193 
4 165 101 176 194 
4 49 63 134 192 
4 105 80 85 152 
4 140 133 151 185 
4 109 112 154 177 
4 133 39 148 187 
4 72 16 18 153 
4 93 94 128 158 
4 19 20 165 176 
4 35 10 132 138 
4 108 126 32 137 
4 51 42 173 174 
4 142 78 146 170 
4 53 121 137 179 
4 73 82 166 196 
4 154 134 157 182 
4 134 136 182 184 
4 50 51 42 173 
4 29 13 136 184 
4 68 27 189 192 
4 101 147 163 165 
4 20 131 165 176 
4 102 87 88 163 
4 107 86 142 193 
4 71 167 175 187 
4 151 138 162 183 
4 50 12 134 182 
4 141 137 108 194 
4 13 63 134 184 
4 144 136 145 197 
4 63 49 134 184 
4 118 117 129 149 
4 105 72 81 171 
4 50 42 45 173 
4 132 145 162 183 
4 35 33 133 162 
4 83 77 160 161 
4 36 145 162 186 
4 121 53 44 179 
4 44 53 54 179 
4 34 36 33 162 
4 104 117 118 149 
4 124 21 57 169 
4 105 111 152 188 
4 94 95 64 164 
4 121 44 139 179 
4 156 101 163 165 
4 81 72 131 171 
4 142 86 149 193 
4 147 156 163 165 
4 150 131 153 169 
4 135 167 196 198 
4 123 30 137 150 
4 14 15 112 157 
4 122 126 108 137 
4 64 84 65 164 
4 20 21 131 176 
4 135 147 163 196 
4 100 123 31 32 
4 30 110 32 194 
4 125 57 30 150 
4 87 88 163 198 
4 117 104 113 149 
4 34 11 45 186 
4 61 3 84 170 
4 88 103 102 198 
4 153 16 169 172 
4 107 7 119 168 
4 137 141 155 194 
4 9 29 136 180 
4 23 112 109 177 
4 139 131 155 171 
4 106 31 125 30 
4 43 109 154 195 
4 86 142 146 159 
4 154 109 177 195 
4 137 139 155 178 
4 43 22 109 195 
4 133 148 167 187 
4 138 0 144 185 
4 134 63 191 192 
4 102 99 110 156 
4 104 5 78 149 
4 131 21 169 176 
4 90 89 135 187 
4 46 136 144 197 
4 96 137 178 179 
4 104 118 5 149 
4 22 24 143 173 
4 141 155 165 171 
4 41 15 145 157 
4 13 12 136 184 
4 128 118 93 158 
4 115 127 92 161 
4 34 33 35 162 
4 97 122 126 108 
4 134 45 182 195 
4 10 132 138 144 
4 118 129 93 149 
4 39 59 38 148 
4 136 12 180 182 
4 11 132 180 186 
4 91 77 83 161 
4 87 101 147 163 
4 27 47 159 189 
4 89 90 135 141 
4 35 38 10 138 
4 25 28 27 189 
4 66 84 64 160 
4 51 75 78 146 
4 3 61 78 170 
4 122 100 126 32 
4 41 145 154 157 
4 122 123 100 32 
4 78 75 142 146 
4 16 130 153 169 
4 124 21 58 57 
4 56 106 125 57 
4 28 47 27 189 
4 127 83 160 161 
4 145 151 183 197 
4 127 83 115 160 
4 20 105 165 171 
4 56 124 58 57 
4 144 145 183 197 
4 31 123 125 30 
4 167 140 196 198 
4 30 137 150 194 
4 93 95 164 168 
4 55 96 79 179 
4 78 5 3 170 
4 21 19 57 176 
4 28 25 143 189 
4 167 166 175 196 
4 145 36 154 186 
4 107 142 159 168 
4 106 125 57 30 
4 129 113 120 193 
4 84 64 160 164 
4 56 125 124 57 
4 134 154 177 195 
4 21 131 169 172 
4 40 36 145 151 
4 81 171 178 188 
4 87 163 196 198 
4 103 88 140 198 
4 12 9 13 136 
4 28 24 47 174 
4 105 111 80 152 
4 38 59 138 148 
4 21 57 169 176 
4 25 23 143 177 
4 101 19 165 176 
4 109 22 23 177 
4 152 71 175 187 
4 171 141 178 188 
4 24 61 47 174 
4 49 14 26 184 
4 121 123 137 150 
4 21 20 131 172 
4 5 128 4 158 
4 103 59 39 148 
4 96 122 108 137 
4 47 83 159 160 
4 25 112 23 177 
4 144 136 180 186 
4 136 134 157 184 
4 147 135 152 175 
4 52 80 166 175 
4 82 147 175 196 
4 155 141 165 194 
4 95 8 127 161 
4 131 153 169 172 
4 22 173 177 195 
4 59 0 138 185 
4 69 27 159 189 
4 36 52 33 162 
4 112 25 157 177 
4 15 40 41 145 
4 51 146 174 191 
4 145 136 157 197 
4 81 111 105 188 
4 12 13 134 184 
4 81 131 139 171 
4 125 57 150 169 
4 167 135 175 187 
4 27 68 26 192 
4 6 107 161 7 
4 27 25 189 192 
4 96 122 137 179 
4 116 119 168 193 
4 136 154 157 182 
4 89 71 80 152 
4 92 83 115 161 
4 1 46 29 144 
4 104 78 75 142 
4 102 148 163 198 
4 99 90 135 148 
4 9 60 144 180 
4 32 99 108 194 
4 147 87 163 196 
4 59 2 0 185 
4 20 67 131 172 
4 14 46 157 184 
4 6 91 92 161 
4 112 41 154 157 
4 130 150 153 169 
4 126 122 32 137 
4 47 61 146 174 
4 80 33 166 175 
4 95 8 161 168 
4 113 117 149 193 
4 3 94 65 164 
4 101 98 147 165 
4 141 135 152 181 
4 72 16 153 172 
4 34 43 154 186 
4 90 135 148 187 
4 34 35 11 132 
4 147 85 152 181 
4 122 123 32 137 
4 29 0 1 144 
4 142 149 158 164 
4 107 159 161 168 
4 105 152 181 188 
4 89 114 90 141 
4 139 131 150 155 
4 93 118 149 158 
4 22 42 173 195 
4 89 141 152 188 
4 140 166 167 196 
4 33 133 162 166 
4 40 36 41 145 
4 45 43 182 195 
4 38 60 10 138 
4 44 121 139 153 
4 138 59 140 148 
4 25 23 28 143 
4 138 144 183 185 
4 114 81 178 188 
4 86 104 149 193 
4 146 76 159 190 
4 107 6 161 91 
4 134 50 173 191 
4 4 3 94 65 
4 24 22 62 173 
4 67 105 131 172 
4 47 83 77 159 
4 50 63 75 191 
4 119 120 113 193 
4 44 18 16 153 
4 26 14 157 184 
4 94 3 158 164 
4 118 5 149 158 
4 36 34 154 186 
4 95 160 164 168 
4 86 107 142 159 
4 123 122 121 137 
4 166 71 167 175 
4 25 143 189 192 
4 12 63 50 134 
4 73 2 140 185 
4 105 98 165 181 
4 57 150 169 176 
4 5 78 149 158 
4 81 74 139 153 
4 104 75 86 142 
4 3 4 94 158 
4 189 143 191 192 
4 160 84 164 170 
4 10 132 144 180 
4 37 38 35 133 
4 104 78 142 149 
4 114 90 141 178 
4 133 138 140 148 
4 99 90 108 141 
4 122 53 137 179 
4 123 125 30 150 
4 48 40 145 151 
4 141 99 156 194 
4 14 15 157 197 
4 77 27 47 159 
4 108 99 141 194 
4 91 107 77 161 
4 142 149 168 193 
4 78 61 146 170 
4 50 45 134 173 
4 62 24 173 174 
4 101 30 176 194 
4 8 107 7 161 
4 45 11 182 186 
4 130 16 124 169 
4 20 67 105 131 
4 141 155 171 178 
4 136 46 184 197 
4 114 79 96 179 
4 8 95 116 168 
4 114 96 108 178 
4 110 99 32 194 
4 70 67 21 172 
4 57 30 150 176 
4 133 151 162 166 
4 105 72 131 172 
4 130 124 125 169 
4 125 124 57 169 
4 131 81 139 153 
4 71 80 152 175 
4 127 8 92 161 
4 76 86 75 146 
4 82 87 147 196 
4 72 105 131 171 
4 146 47 159 170 
4 35 132 133 138 
4 51 50 75 191 
4 75 76 146 190 
4 45 50 134 182 
4 70 21 124 172 
4 149 116 168 193 
4 45 134 173 195 
4 136 144 183 186 
4 132 34 162 186 
4 134 154 157 177 
4 124 21 169 172 
4 54 53 55 179 
4 84 66 64 65 
4 96 55 53 179 
4 12 11 180 182 
4 137 121 139 179 
4 136 144 145 183 
4 38 35 133 138 
4 33 80 71 175 
4 67 72 105 172 
4 44 79 139 179 
4 129 113 117 120 
4 49 134 184 192 
4 159 69 189 190 
4 42 22 43 195 
4 116 149 168 93 
4 34 35 132 162 
4 89 80 111 152 
4 45 12 50 182 
4 156 147 163 181 
4 73 140 151 185 
4 139 79 178 179 
4 7 161 6 8 
4 43 45 42 195 
4 15 14 1 197 
4 150 131 169 176 
4 88 102 163 198 
4 143 134 191 192 
4 11 34 132 186 
4 60 38 59 138 
4 2 1 0 197 
4 30 57 19 176 
4 145 136 154 157 
4 77 159 160 161 
4 43 34 45 186 
4 114 111 81 188 
4 36 145 151 162 
4 89 114 141 188 
4 139 121 150 153 
4 73 48 2 185 
4 148 135 167 187 
4 73 88 87 196 
4 119 8 116 168 
4 144 183 185 197 
4 30 150 176 194 
4 1 14 157 197 
4 154 112 157 177 
4 117 129 149 193 
4 2 48 1 197 
4 140 88 196 198 
4 142 149 164 168 
4 15 145 157 197 
4 15 1 48 197 
4 48 2 185 197 
4 135 156 163 181 
4 147 156 165 181 
4 32 108 137 194 
4 95 127 160 161 
4 15 48 145 197 
4 63 68 76 190 
4 2 59 140 185 
4 119 113 107 193 
4 147 135 163 181 
4 85 98 105 181 
4 133 138 151 185 
4 120 119 116 193 
4 134 136 157 182 
4 99 110 156 194 
4 72 81 131 153 
4 50 51 173 191 
4 88 87 196 198 
4 70 17 67 172 
4 165 131 171 176 
4 54 55 79 179 
4 72 17 16 172 
4 189 146 190 191 
4 62 51 61 174 
4 159 47 160 170 
4 146 159 189 190 
4 143 22 173 177 
4 78 142 149 158 
4 134 143 173 177 
4 48 73 151 185 
4 132 138 144 183 
4 79 81 139 178 
4 62 61 24 174 
4 143 174 189 191 
4 82 87 98 147 
4 85 82 147 175 
4 62 42 51 174 
4 83 127 115 161 
4 99 39 90 148 
4 143 173 174 191 
4 60 10 138 144 
4 85 82 98 147 
4 46 1 157 197 
4 11 9 12 180 
4 71 37 133 187 
4 76 146 159 86 
4 63 26 68 192 
4 137 139 178 179 
4 113 129 117 193 
4 133 38 138 148 
4 141 156 165 194 
4 33 71 166 175 
4 141 114 178 188 
4 160 95 161 168 
4 171 105 181 188 
4 141 171 181 188 
4 139 81 171 178 
4 101 98 87 147 
4 49 46 14 184 
4 140 133 148 167 
4 63 190 191 192 
4 23 24 28 143 
4 13 29 46 184 
4 141 137 155 178 
4 76 69 159 190 
4 74 44 139 153 
4 69 27 189 190 
4 85 80 52 175 
4 52 82 85 175 
4 93 116 95 168 
4 131 72 153 172 
4 47 84 160 170 
4 138 132 162 183 
4 86 104 142 149 
4 138 133 151 162 
4 105 20 131 171 
4 51 78 61 146 
4 0 29 60 144 
4 81 105 171 188 
4 12 9 136 180 
4 165 141 171 181 
4 77 107 159 161 
4 145 151 162 183 
4 39 38 37 187 
4 155 165 176 194 
4 173 51 174 191 
4 3 5 158 170 
4 13 46 49 184 
4 71 89 37 187 
4 102 103 99 148 
4 61 51 146 174 
4 109 22 177 195 
4 63 68 190 192 
4 29 46 136 144 
4 75 86 142 146 
4 2 0 185 197 
4 108 96 137 178 
4 120 116 129 193 
4 151 52 162 166 
4 82 73 87 196 
4 142 146 159 170 
4 11 10 9 180 
4 132 144 180 186 
4 163 135 196 198 
4 25 26 157 192 
4 143 25 157 192 
4 12 134 182 184 
4 90 99 135 141 
4 149 93 164 168 
4 145 132 162 186 
4 70 124 16 172 
4 101 102 156 163 
4 38 39 133 187 
4 94 93 95 164 
4 89 71 152 187 
4 135 148 167 198 
4 8 107 161 168 
4 24 23 22 143 
4 173 134 177 195 
4 30 19 101 176 
4 85 147 152 175 
4 137 139 150 155 
4 79 114 178 179 
4 133 140 151 166 
4 102 103 148 198 
4 110 101 156 194 
4 40 15 48 145 
4 43 45 182 186 
4 158 142 164 170 
4 114 89 111 188 
4 47 28 174 189 
4 75 63 190 191 
4 157 136 184 197 
4 16 124 169 172 
4 146 75 190 191 
4 39 38 133 148 
4 155 165 171 176 
4 25 143 157 177 
4 73 2 88 140 
4 156 101 165 194 
4 69 77 107 159 
4 59 103 2 140 
4 114 108 90 178 
4 111 89 152 188 
4 114 96 178 179 
4 180 136 182 186 
4 89 90 37 187 
4 53 121 122 137 
4 52 33 162 166 
4 43 154 182 195 
4 71 35 33 133 
4 146 47 174 189 
4 113 104 86 193 
4 138 133 140 185 
4 135 152 175 187 
4 79 44 54 179 
4 83 47 84 160 
4 145 48 151 197 
4 102 101 87 163 
4 1 46 144 197 
4 74 79 81 139 
4 24 143 173 174 
4 136 154 182 186 
4 37 38 133 187 
4 78 142 158 170 
4 121 137 139 150 
4 71 133 166 167 
4 27 68 189 190 
4 121 130 150 153 
4 0 60 138 144 
4 42 62 173 174 
4 134 143 157 192 

CELL_TYPES 725
10
10
10
10
10
10
10
10
10
10
10
10
10
10
10
10
10
10
10
10
10
10
10
10
10
10
10
10
10
10
10
10
10
10
10
10
10
10
10
10
10
10
10
10
10
10
10
10
10
10
10
10
10
10
10
10
10
10
10
10
10
10
10
10
10
10
10
10
10
10
10
10
10
10
10
10
10
10
10
10
10
10
10
10
10
10
10
10
10
10
10
10
10
10
10
10
10
10
10
10
10
10
10
10
10
10
10
10
10
10
10
10
10
10
10
10
10
10
10
10
10
10
10
10
10
10
10
10
10
10
10
10
10
10
10
10
10
10
10
10
10
10
10
10
10
10
10
10
10
10
10
10
10
10
10
10
10
10
10
10
10
10
10
10
10
10
10
10
10
10
10
10
10
10
10
10
10
10
10
10
10
10
10
10
10
10
10
10
10
10
10
10
10
10
10
10
10
10
10
10
10
10
10
10
10
10
10
10
10
10
10
10
10
10
10
10
10
10
10
10
10
10
10
10
10
10
10
10
10
10
10
10
10
10
10
10
10
10
10
10
10
10
10
10
10
10
10
10
10
10
10
10
10
10
10
10
10
10
10
10
10
10
10
10
10
10
10
10
10
10
10
10
10
10
10
10
10
10
10
10
10
10
10
10
10
10
10
10
10
10
10
10
10
10
10
10
10
10
10
10
10
10
10
10
10
10
10
10
10
10
10
10
10
10
10
10
10
10
10
10
10
10
10
10
10
10
10
10
10
10
10
10
10
10
10
10
10
10
10
10
10
10
10
10
10
10
10
10
10
10
10
10
10
10
10
10
10
10
10
10
10
10
10
10
10
10
10
10
10
10
10
10
10
10
10
10
10
10
10
10
10
10
10
10
10
10
10
10
10
10
10
10
10
10
10
10
10
10
10
10
10
10
10
10
10
10
10
10
10
10
10
10
10
10
10
10
10
10
10
10
10
10
10
10
10
10
10
10
10
10
10
10
10
10
10
10
10
10
10
10
10
10
10
10
10
10
10
10
10
10
10
10
10
10
10
10
10
10
10
10
10
10
10
10
10
10
10
10
10
10
10
10
10
10
10
10
10
10
10
10
10
10
10
10
10
10
10
10
10
10
10
10
10
10
10
10
10
10
10
10
10
10
10
10
10
10
10
10
10
10
10
10
10
10
10
10
10
10
10
10
10
10
10
10
10
10
10
10
10
10
10
10
10
10
10
10
10
10
10
10
10
10
10
10
10
10
10
10
10
10
10
10
10
10
10
10
10
10
10
10
10
10
10
10
10
10
10
10
10
10
10
10
10
10
10
10
10
10
10
10
10
10
10
10
10
10
10
10
10
10
10
10
10
10
10
10
10
10
10
10
10
10
10
10
10
10
10
10
10
10
10
10
10
10
10
10
10
10
10
10
10
10
10
10
10
10
10
10
10
10
10
10
10
10
10
10
10
10
10
10
10
10
10
10
10
10
10
10
10
10
10
10
10
10
10
10
10
10
10
10
10
10
10
10
10
10
10
10
10
10
10
10
10
10
10
10
10
10
10
10
10
10
10
10
10
10
10
10
10
10
10
10
10
10
10
10
10
10
10
10
10
10
10
10
10
10
10
10
10
10
10
10
10
10
10
10
10
10
10
10
10
10
10
10
10

CELL_DATA 725
SCALARS ModelRegionID int
LOOKUP_TABLE default
1 1 1 1 1 1 1 1 1 
1 1 1 1 1 1 1 1 1 
1 1 1 1 1 1 1 1 1 
1 1 1 1 1 1 1 1 1 
1 1 1 1 1 1 1 1 1 
1 1 1 1 1 1 1 1 1 
1 1 1 1 1 1 1 1 1 
1 1 1 1 1 1 1 1 1 
1 1 1 1 1 1 1 1 1 
1 1 1 1 1 1 1 1 1 
1 1 1 1 1 1 1 1 1 
1 1 1 1 1 1 1 1 1 
1 1 1 1 1 1 1 1 1 
1 1 1 1 1 1 1 1 1 
1 1 1 1 1 1 1 1 1 
1 1 1 1 1 1 1 1 1 
1 1 1 1 1 1 1 1 1 
1 1 1 1 1 1 1 1 1 
1 1 1 1 1 1 1 1 1 
1 1 1 1 1 1 1 1 1 
1 1 1 1 1 1 1 1 1 
1 1 1 1 1 1 1 1 1 
1 1 1 1 1 1 1 1 1 
1 1 1 1 1 1 1 1 1 
1 1 1 1 1 1 1 1 1 
1 1 1 1 1 1 1 1 1 
1 1 1 1 1 1 1 1 1 
1 1 1 1 1 1 1 1 1 
1 1 1 1 1 1 1 1 1 
1 1 1 1 1 1 1 1 1 
1 1 1 1 1 1 1 1 1 
1 1 1 1 1 1 1 1 1 
1 1 1 1 1 1 1 1 1 
1 1 1 1 1 1 1 1 1 
1 1 1 1 1 1 1 1 1 
1 1 1 1 1 1 1 1 1 
1 1 1 1 1 1 1 1 1 
1 1 1 1 1 1 1 1 1 
1 1 1 1 1 1 1 1 1 
1 1 1 1 1 1 1 1 1 
1 1 1 1 1 1 1 1 1 
1 1 1 1 1 1 1 1 1 
1 1 1 1 1 1 1 1 1 
1 1 1 1 1 1 1 1 1 
1 1 1 1 1 1 1 1 1 
1 1 1 1 1 1 1 1 1 
1 1 1 1 1 1 1 1 1 
1 1 1 1 1 1 1 1 1 
1 1 1 1 1 1 1 1 1 
1 1 1 1 1 1 1 1 1 
1 1 1 1 1 1 1 1 1 
1 1 1 1 1 1 1 1 1 
1 1 1 1 1 1 1 1 1 
1 1 1 1 1 1 1 1 1 
1 1 1 1 1 1 1 1 1 
1 1 1 1 1 1 1 1 1 
1 1 1 1 1 1 1 1 1 
1 1 1 1 1 1 1 1 1 
1 1 1 1 1 1 1 1 1 
1 1 1 1 1 1 1 1 1 
1 1 1 1 1 1 1 1 1 
1 1 1 1 1 1 1 1 1 
1 1 1 1 1 1 1 1 1 
1 1 1 1 1 1 1 1 1 
1 1 1 1 1 1 1 1 1 
1 1 1 1 1 1 1 1 1 
1 1 1 1 1 1 1 1 1 
1 1 1 1 1 1 1 1 1 
1 1 1 1 1 1 1 1 1 
1 1 1 1 1 1 1 1 1 
1 1 1 1 1 1 1 1 1 
1 1 1 1 1 1 1 1 1 
1 1 1 1 1 1 1 1 1 
1 1 1 1 1 1 1 1 1 
1 1 1 1 1 1 1 1 1 
1 1 1 1 1 1 1 1 1 
1 1 1 1 1 1 1 1 1 
1 1 1 1 1 1 1 1 1 
1 1 1 1 1 1 1 1 1 
1 1 1 1 1 1 1 1 1 
1 1 1 1 1 
FIELD FieldData 1
GlobalElementID 1 725 int
1 2 3 4 5 6 7 8 9 
10 11 12 13 14 15 16 17 18 
19 20 21 22 23 24 25 26 27 
28 29 30 31 32 33 34 35 36 
37 38 39 40 41 42 43 44 45 
46 47 48 49 50 51 52 53 54 
55 56 57 58 59 60 61 62 63 
64 65 66 67 68 69 70 71 72 
73 74 75 76 77 78 79 80 81 
82 83 84 85 86 87 88 89 90 
91 92 93 94 95 96 97 98 99 
100 101 102 103 104 105 106 107 108 
109 110 111 112 113 114 115 116 117 
118 119 120 121 122 123 124 125 126 
127 128 129 130 131 132 133 134 135 
136 137 138 139 140 141 142 143 144 
145 146 147 148 149 150 151 152 153 
154 155 156 157 158 159 160 161 162 
163 164 165 166 167 168 169 170 171 
172 173 174 175 176 177 178 179 180 
181 182 183 184 185 186 187 188 189 
190 191 192 193 194 195 196 197 198 
199 200 201 202 203 204 205 206 207 
208 209 210 211 212 213 214 215 216 
217 218 219 220 221 222 223 224 225 
226 227 228 229 230 231 232 233 234 
235 236 237 238 239 240 241 242 243 
244 245 246 247 248 249 250 251 252 
253 254 255 256 257 258 259 260 261 
262 263 264 265 266 267 268 269 270 
271 272 273 274 275 276 277 278 279 
280 281 282 283 284 285 286 287 288 
289 290 291 292 293 294 295 296 297 
298 299 300 301 302 303 304 305 306 
307 308 309 310 311 312 313 314 315 
316 317 318 319 320 321 322 323 324 
325 326 327 328 329 330 331 332 333 
334 335 336 337 338 339 340 341 342 
343 344 345 346 347 348 349 350 351 
352 353 354 355 356 357 358 359 360 
361 362 363 364 365 366 367 368 369 
370 371 372 373 374 375 376 377 378 
379 380 381 382 383 384 385 386 387 
388 389 390 391 392 393 394 395 396 
397 398 399 400 401 402 403 404 405 
406 407 408 409 410 411 412 413 414 
415 416 417 418 419 420 421 422 423 
424 425 426 427 428 429 430 431 432 
433 434 435 436 437 438 439 440 441 
442 443 444 445 446 447 448 449 450 
451 452 453 454 455 456 457 458 459 
460 461 462 463 464 465 466 467 468 
469 470 471 472 473 474 475 476 477 
478 479 480 481 482 483 484 485 486 
487 488 489 490 491 492 493 494 495 
496 497 498 499 500 501 502 503 504 
505 506 507 508 509 510 511 512 513 
514 515 516 517 518 519 520 521 522 
523 524 525 526 527 528 529 530 531 
532 533 534 535 536 537 538 539 540 
541 542 543 544 545 546 547 548 549 
550 551 552 553 554 555 556 557 558 
559 560 561 562 563 564 565 566 567 
568 569 570 571 572 573 574 575 576 
577 578 579 580 581 582 583 584 585 
586 587 588 589 590 591 592 593 594 
595 596 597 598 599 600 601 602 603 
604 605 606 607 608 609 610 611 612 
613 614 615 616 617 618 619 620 621 
622 623 624 625 626 627 628 629 630 
631 632 633 634 635 636 637 638 639 
640 641 642 643 644 645 646 647 648 
649 650 651 652 653 654 655 656 657 
658 659 660 661 662 663 664 665 666 
667 668 669 670 671 672 673 674 675 
676 677 678 679 680 681 682 683 684 
685 686 687 688 689 690 691 692 693 
694 695 696 697 698 699 700 701 702 
703 704 705 706 707 708 709 710 711 
712 713 714 715 716 717 718 719 720 
721 722 723 724 725 
POINT_DATA 199
FIELD FieldData 1
GlobalNodeID 1 199 int
1 2 3 4 5 6 7 8 9 
10 11 12 13 14 15 16 17 18 
19 20 21 22 23 24 25 26 27 
28 29 30 31 32 33 34 35 36 
37 38 39 40 41 42 43 44 45 
46 47 48 49 50 51 52 53 54 
55 56 57 58 59 60 61 62 63 
64 65 66 67 68 69 70 71 72 
73 74 75 76 77 78 79 80 81 
82 83 84 85 86 87 88 89 90 
91 92 93 94 95 96 97 98 99 
100 101 102 103 104 105 106 107 108 
109 110 111 112 113 114 115 116 117 
118 119 120 121 122 123 124 125 126 
127 128 129 130 131 132 133 134 135 
136 137 138 139 140 141 142 143 144 
145 146 147 148 149 150 151 152 153 
154 155 156 157 158 159 160 161 162 
163 164 165 166 167 168 169 170 171 
172 173 174 175 176 177 178 179 180 
181 182 183 184 185 186 187 188 189 
190 191 192 193 194 195 196 197 198 
199 
