# vtk DataFile Version 4.2
vtk output
ASCII
DATASET UNSTRUCTURED_GRID
POINTS 1233 float
-2.20717 -1.55091 11.7733 -2.30859 -1.16944 11.8878 -2.53629 -1.43824 11.6478 
-2.02104 -1.85359 11.7386 -1.90666 -1.4955 11.9577 -1.87993 -0.0859872 10.8815 
-2.08193 -0.373457 10.9946 -2.01452 -0.141469 11.2677 -0.821062 -2.24509 10.997 
-0.869067 -2.16026 10.6864 -0.450706 -2.1137 10.8526 -1.49093 -2.23812 11.0886 
-1.50046 -2.01931 10.7043 -1.15207 -2.19716 10.8443 0.559434 -1.43214 7.87105 
0.807856 -1.15368 7.81388 0.724142 -1.24922 8.10225 -0.447886 0.871124 9.09055 
-0.125513 0.87612 8.99833 -0.337637 0.927979 8.65813 0.294012 1.48414 4.91306 
0.367826 1.41072 5.20377 0.567394 1.34497 4.92552 0.383527 1.49064 4.64453 
-1.19769 0.457021 9.31029 -1.22756 0.390053 9.02432 -1.36112 0.206415 9.12227 
-0.163679 1.07634 7.54375 -0.00575275 1.02721 7.98672 0.270438 1.0567 7.59715 
0.720032 1.09712 5.77358 0.950288 0.860893 5.52585 0.707784 1.1778 5.28536 
-0.0167903 -1.6947 7.70089 -0.253171 -1.68436 7.44634 0.0514287 -1.62529 7.25358 
-0.845456 -1.74826 12.411 -0.716654 -2.17579 12.2906 -0.594166 -1.87635 12.4881 
-0.572616 -2.18322 11.2444 -0.302063 -1.63536 7.12449 -0.0708707 -1.58308 6.86059 
-0.680813 -1.4339 7.03808 -0.58969 -1.58642 7.41995 -0.407356 -1.55069 6.81296 
-0.665742 -1.32767 6.59216 -0.26458 -1.4972 6.4796 0.131099 -1.14054 5.33821 
0.414949 -1.04081 5.29329 0.481186 -1.08538 5.59975 0.280538 0.913416 8.27511 
0.431647 0.749593 8.53805 0.602302 0.691805 8.23334 1.16809 0.233048 5.77523 
1.16612 0.215085 5.46803 1.11116 0.512222 5.69741 -1.39377 0.227829 11.9727 
-1.75578 0.134818 11.9555 -1.57575 0.157807 12.2031 -2.0918 -0.0956063 11.9817 
-1.8727 0.0613372 11.6262 -2.14109 -0.212624 11.6003 -0.231986 -1.40374 6.15384 
-0.541614 -1.31983 6.22546 -0.174728 1.46254 5.39534 -0.555166 1.28445 5.63166 
-0.253387 1.35958 5.85876 -0.502114 1.22972 6.02367 0.393495 -0.975782 4.99915 
-0.0783867 -1.02662 4.91199 0.190445 -0.957717 4.6941 -0.674318 -1.88787 9.78676 
-0.834977 -1.77998 9.56339 -0.376848 -1.89998 9.59776 -0.309251 -1.09878 5.29239 
-0.527536 -1.09609 5.58827 -0.682565 -0.851868 5.24459 0.365212 0.726237 4.44029 
0.732792 0.683536 4.42992 0.555396 0.437811 4.36378 -0.598713 -1.6768 8.04681 
-0.428249 -1.69903 7.72647 -0.213912 -1.74717 8.03396 -0.874095 0.0791069 11.9365 
-0.77287 0.211521 11.6232 -1.1156 0.289692 11.7071 -0.940688 0.381972 11.4073 
-1.30333 0.390953 11.3318 0.198566 -1.73155 9.29291 0.21753 -1.70662 9.69921 
-0.00256434 -1.84883 9.57181 0.402809 -1.53183 9.43314 -0.790074 -1.48453 7.72796 
0.542363 1.00829 7.23325 0.803417 0.860662 6.92442 0.440257 1.14704 6.80312 
1.07503 0.104164 7.74163 1.14456 -0.206695 7.5666 1.13377 0.0890195 7.42684 
-1.43555 -0.0168889 8.89049 -1.25463 0.318328 8.77904 0.162954 1.14768 7.1671 
-1.24765 -2.4943 11.8672 -1.41779 -2.10971 11.9466 -1.5698 -2.46955 11.7066 
0.137725 -1.5753 10.7867 -0.101484 -1.79731 11.0654 -0.104323 -1.8966 10.7016 
1.11856 0.659911 4.42471 0.878692 0.431373 4.36298 -0.921194 -1.12228 6.91217 
-1.10832 -0.749948 6.67849 -0.915827 -1.01473 6.53215 1.21938 -0.0543138 6.46369 
1.18043 0.250234 6.699 1.21425 -0.0946426 6.86473 -1.00191 0.568637 7.12654 
-1.14039 0.367059 6.80162 -1.17763 0.292241 7.16326 -1.2666 0.0204699 7.05076 
-1.26424 0.109183 7.42568 -1.21016 -0.420626 6.50217 -1.24889 -0.0550504 6.61061 
-1.22996 -0.109092 6.22441 -1.85731 0.0592509 12.2858 -0.929529 0.684632 6.80488 
1.05636 0.542433 6.80257 1.10879 0.484743 6.47282 0.955416 0.730633 6.61886 
-1.04858 -0.459679 12.8723 -1.27249 -0.231262 12.854 -1.41245 -0.56661 12.6313 
-2.40129 -1.75382 11.5803 -0.759057 0.907307 6.55914 -0.493323 1.1587 6.3297 
-0.697486 1.04631 6.2075 0.313448 -0.949364 10.8953 0.302311 -1.27682 10.7081 
0.423143 -1.07359 10.5079 0.747302 0.981898 6.52716 0.34537 -1.6197 8.76941 
0.291024 -1.65666 8.50889 0.563902 -1.41177 8.6489 -0.387906 -1.2735 5.88174 
-0.052945 -1.32685 5.90162 0.754916 0.11033 9.04336 0.772368 0.266879 8.71985 
0.585436 0.423523 8.99153 0.458319 -0.691389 10.5406 0.929427 -0.654508 5.52542 
1.10054 -0.360823 5.59059 1.01244 -0.6333 5.90236 0.00885627 1.33735 6.10665 
0.213075 1.26727 6.42296 0.443587 1.25463 6.03049 0.177379 1.43715 5.41273 
0.124564 1.39073 5.75204 0.419631 1.32986 5.58224 0.547594 -1.44552 8.26137 
0.206071 -1.66946 8.05147 0.338593 -1.56871 7.60536 -1.12439 -1.99311 12.1543 
0.417906 -1.54794 9.03912 0.66686 -1.21624 8.97869 0.619112 -1.21291 9.33904 
-0.939625 -1.2662 12.5739 -0.576867 -1.5599 12.6372 -0.690053 -0.588287 4.44164 
-0.685453 -0.719457 4.84588 -0.896695 -0.464025 4.75447 0.634765 -1.34701 7.50286 
0.429689 -1.4831 7.27464 1.11527 0.54191 5.31341 -1.54432 -0.950732 9.42842 
-1.56035 -0.681909 9.23061 -1.46597 -0.928847 9.1056 -1.20386 -1.63243 9.79865 
-1.51816 -1.43753 10.0088 -1.42404 -1.29582 9.60058 -1.6007 -0.316947 9.45557 
-1.47584 0.0818633 9.49239 -1.5025 -0.0873866 9.21008 -1.16639 -1.38808 9.04847 
-0.898607 -1.64684 9.12343 -1.1579 -1.50693 9.37592 -1.91621 -2.32912 11.5843 
-2.18857 -2.06817 11.5546 -1.89621 -2.1256 11.2566 -0.935492 -0.321521 4.47066 
-1.10104 -0.0648188 4.67227 -1.05132 -0.0326608 4.23356 1.1702 -0.0441987 5.67991 
1.14888 -0.100204 5.30082 -1.68665 -0.965672 9.86194 -1.64219 -0.670317 9.56505 
1.10288 -0.0456436 4.23619 1.15287 0.313729 4.33233 1.14469 0.0631531 4.61002 
-1.56489 0.0895907 12.4633 -1.31102 0.11 12.2695 -1.7152 -0.463908 9.86991 
-1.60572 -0.113058 9.76732 -1.49064 0.167945 9.87726 -1.04523 -0.752724 6.32784 
-0.952876 -0.795187 6.01436 -0.882113 -0.96807 6.25126 0.603174 -1.04809 9.80258 
0.673182 -0.571924 9.82676 0.554187 -0.83351 10.2019 -0.672786 -0.14824 12.0259 
-0.942189 -0.0773773 12.25 -0.680475 -0.374421 12.2817 -0.0634844 -1.89423 9.95844 
-1.33573 0.396319 10.1096 -1.26569 0.424442 9.70523 -0.820253 0.735598 9.64175 
-0.612853 0.755511 9.91352 -0.507058 0.820196 9.49446 0.701312 -0.856793 5.33498 
0.793047 -0.871507 5.73958 -0.488583 -2.02894 11.8289 -0.527776 -1.96232 12.1503 
-0.682113 -2.20566 11.9495 -0.944383 -2.39257 12.0736 -1.13705 -0.485393 6.08272 
-0.73313 -0.967276 12.8159 -0.628736 -1.25931 12.7424 -0.493505 -1.00473 12.4189 
0.150675 -1.2334 5.67709 -0.69833 -0.666046 12.5627 -1.06256 0.784184 4.83778 
-1.15126 0.382747 4.74155 -1.1466 0.490068 5.08939 -1.24311 -0.894572 7.86446 
-1.25336 -1.01148 8.24896 -1.37722 -0.614816 8.09679 -0.173101 -1.21796 5.57471 
0.305274 0.369196 9.85945 0.417427 0.100001 10.0698 0.555887 0.0972928 9.69676 
-2.34687 -0.428762 11.8218 -2.31473 -0.267231 12.2833 -0.477596 -1.9719 10.0252 
-2.46517 -0.508045 12.0968 0.790018 -0.885306 9.1029 0.782301 -1.06117 8.72677 
-1.62899 -2.35128 11.413 -0.347886 1.14386 4.54983 0.0160822 1.32145 4.5983 
-0.0276892 0.92343 4.49185 0.531054 1.1635 6.39307 -0.0265651 1.20717 6.79309 
0.0787811 1.51103 5.07995 0.0161245 1.59034 4.67012 -1.07579 0.591911 10.3349 
-1.42163 0.35571 10.54 -0.262964 1.52875 4.99985 -0.928206 0.813774 6.13918 
-1.02012 0.612419 6.47917 -1.1344 -0.271089 5.46319 -1.04242 -0.334975 5.05939 
-0.940267 -0.597613 5.35868 -1.96438 -0.653169 10.468 -1.94582 -0.360143 10.6323 
-1.82156 -0.389036 10.2642 -2.44559 -0.791384 11.5692 -2.33008 -0.862409 11.2187 
-2.45189 -1.12936 11.4359 -0.902494 -1.89461 10.0453 0.0636295 -1.41322 6.22489 
0.339718 -1.25732 5.96675 0.399181 -1.34258 6.37399 1.16094 0.229852 5.04712 
-1.97012 -1.89283 11.0588 -2.15495 -1.79792 11.2239 -1.98018 -1.69335 10.8692 
-1.19934 0.250256 5.87726 -1.03351 0.727837 5.758 -1.16672 0.407458 5.4471 
0.729751 -0.728893 4.90681 -2.10438 -1.26773 10.7647 -1.88111 -1.45622 10.5381 
-1.53734 0.262886 11.646 -0.23958 -1.99749 10.3982 -0.70658 -2.05844 10.3843 
0.454253 -0.125856 10.257 0.241111 0.122348 10.4485 -1.12814 0.547219 10.6693 
-0.702439 0.620959 10.5923 -0.935382 0.503665 11.0716 0.466087 -1.24401 10.1108 
-1.07931 -1.01188 7.3093 -1.14571 -0.795945 7.02369 -0.0908941 -1.77176 8.41636 
-1.75894 -1.28981 10.2467 -1.95723 -1.17086 10.4863 -0.588069 1.34262 5.25022 
-0.595955 1.40712 4.91566 -0.840799 1.14981 4.98034 -2.0958 -0.665517 10.7525 
-0.380643 -0.870955 4.6619 -0.147895 -1.85062 9.23709 0.0625919 -1.77553 8.85067 
0.79569 -0.46641 9.34615 0.723038 -0.0631645 9.37532 0.685451 -0.239827 9.6633 
-1.35549 0.410349 10.9592 -1.10277 0.532484 6.13463 0.952324 0.804485 5.93958 
-2.36378 -1.46287 11.3271 -0.246741 0.73704 9.79132 -0.0830494 0.796885 9.34021 
0.9774 -0.507287 5.20669 -1.45516 -1.83641 10.4165 -1.32345 -1.73977 10.1648 
-1.13406 -2.01722 10.4674 -0.626205 0.320005 11.3209 0.853505 -0.223764 9.02621 
0.876514 -0.0489574 8.79319 -1.38709 -0.346216 7.97252 -1.33451 -0.542204 7.69001 
-0.846151 0.7296 9.29521 -0.748574 0.785752 8.83508 -1.06818 0.558673 8.97639 
0.0881541 -1.75646 10.4229 -2.08931 -0.564772 12.2718 -2.28692 -0.812998 12.0569 
-1.96317 -0.991651 12.1503 0.823712 0.35167 8.37091 0.877078 0.460251 7.92253 
-0.650892 0.839422 8.50091 -1.25703 0.225289 8.16063 -1.06988 0.496454 8.08925 
-1.22747 0.234925 7.78696 0.993197 0.0806155 8.16089 0.936742 -0.00614252 8.5059 
1.01874 -0.277061 8.3093 -0.704338 -1.07872 5.96767 1.0866 -0.219791 7.93409 
-0.464139 0.934344 8.18898 -0.0860215 0.975786 8.35747 1.11069 0.598559 5.00096 
0.971116 0.887408 5.12139 -0.427738 0.973573 7.8144 -0.551607 0.941737 7.46265 
-0.742964 0.797144 7.88392 1.05146 0.79148 4.78136 0.852394 1.097 4.84747 
-1.04936 -1.34902 8.40242 -0.8542 -1.50031 8.12211 -0.753674 -1.63311 8.43791 
-0.976751 -1.50767 8.77589 -1.19149 -0.207614 5.81551 0.891219 -1.00874 6.75211 
0.688436 -1.18603 6.56222 0.882338 -0.952979 6.38923 -1.10622 0.420586 7.45816 
-1.01428 0.548441 7.74538 -1.18999 0.275459 6.35692 0.618011 0.871905 7.60217 
-2.30369 -1.18858 11.1138 0.107101 0.89142 8.65253 -1.70792 -1.85259 11.9057 
-2.12107 -0.0961588 12.462 -1.11481 0.145734 12.0389 0.438863 0.912724 7.94246 
1.19588 -0.0141004 6.07574 1.11933 0.462016 6.10659 0.820885 0.639971 7.6462 
0.810917 0.748634 7.33266 -0.756025 -1.13853 6.30609 -0.916183 -2.37238 11.7116 
[...]
CELL_DATA 5791
SCALARS ModelRegionID int
LOOKUP_TABLE default
1 1 1 1 1 1 1 1 1 
1 1 1 1 1 1 1 1 1 
1 1 1 1 1 1 1 1 1 
1 1 1 1 1 1 1 1 1 
1 1 1 1 1 1 1 1 1 
1 1 1 1 1 1 1 1 1 
1 1 1 1 1 1 1 1 1 
1 1 1 1 1 1 1 1 1 
1 1 1 1 1 1 1 1 1 
1 1 1 1 1 1 1 1 1 
1 1 1 1 1 1 1 1 1 
1 1 1 1 1 1 1 1 1 
1 1 1 1 1 1 1 1 1 
1 1 1 1 1 1 1 1 1 
1 1 1 1 1 1 1 1 1 
1 1 1 1 1 1 1 1 1 
1 1 1 1 1 1 1 1 1 
1 1 1 1 1 1 1 1 1 
1 1 1 1 1 1 1 1 1 
1 1 1 1 1 1 1 1 1 
1 1 1 1 1 1 1 1 1 
1 1 1 1 1 1 1 1 1 
1 1 1 1 1 1 1 1 1 
1 1 1 1 1 1 1 1 1 
1 1 1 1 1 1 1 1 1 
1 1 1 1 1 1 1 1 1 
1 1 1 1 1 1 1 1 1 
1 1 1 1 1 1 1 1 1 
1 1 1 1 1 1 1 1 1 
1 1 1 1 1 1 1 1 1 
1 1 1 1 1 1 1 1 1 
1 1 1 1 1 1 1 1 1 
1 1 1 1 1 1 1 1 1 
1 1 1 1 1 1 1 1 1 
1 1 1 1 1 1 1 1 1 
1 1 1 1 1 1 1 1 1 
1 1 1 1 1 1 1 1 1 
1 1 1 1 1 1 1 1 1 
1 1 1 1 1 1 1 1 1 
1 1 1 1 1 1 1 1 1 
1 1 1 1 1 1 1 1 1 
1 1 1 1 1 1 1 1 1 
1 1 1 1 1 1 1 1 1 
1 1 1 1 1 1 1 1 1 
1 1 1 1 1 1 1 1 1 
1 1 1 1 1 1 1 1 1 
1 1 1 1 1 1 1 1 1 
1 1 1 1 1 1 1 1 1 
1 1 1 1 1 1 1 1 1 
1 1 1 1 1 1 1 1 1 
1 1 1 1 1 1 1 1 1 
1 1 1 1 1 1 1 1 1 
1 1 1 1 1 1 1 1 1 
1 1 1 1 1 1 1 1 1 
1 1 1 1 1 1 1 1 1 
1 1 1 1 1 1 1 1 1 
1 1 1 1 1 1 1 1 1 
1 1 1 1 1 1 1 1 1 
1 1 1 1 1 1 1 1 1 
1 1 1 1 1 1 1 1 1 
1 1 1 1 1 1 1 1 1 
1 1 1 1 1 1 1 1 1 
1 1 1 1 1 1 1 1 1 
1 1 1 1 1 1 1 1 1 
1 1 1 1 1 1 1 1 1 
1 1 1 1 1 1 1 1 1 
1 1 1 1 1 1 1 1 1 
1 1 1 1 1 1 1 1 1 
1 1 1 1 1 1 1 1 1 
1 1 1 1 1 1 1 1 1 
1 1 1 1 1 1 1 1 1 
1 1 1 1 1 1 1 1 1 
1 1 1 1 1 1 1 1 1 
1 1 1 1 1 1 1 1 1 
1 1 1 1 1 1 1 1 1 
1 1 1 1 1 1 1 1 1 
1 1 1 1 1 1 1 1 1 
1 1 1 1 1 1 1 1 1 
1 1 1 1 1 1 1 1 1 
1 1 1 1 1 1 1 1 1 
1 1 1 1 1 1 1 1 1 
1 1 1 1 1 1 1 1 1 
1 1 1 1 1 1 1 1 1 
1 1 1 1 1 1 1 1 1 
1 1 1 1 1 1 1 1 1 
1 1 1 1 1 1 1 1 1 
1 1 1 1 1 1 1 1 1 
1 1 1 1 1 1 1 1 1 
1 1 1 1 1 1 1 1 1 
1 1 1 1 1 1 1 1 1 
1 1 1 1 1 1 1 1 1 
1 1 1 1 1 1 1 1 1 
1 1 1 1 1 1 1 1 1 
1 1 1 1 1 1 1 1 1 
1 1 1 1 1 1 1 1 1 
1 1 1 1 1 1 1 1 1 
1 1 1 1 1 1 1 1 1 
1 1 1 1 1 1 1 1 1 
1 1 1 1 1 1 1 1 1 
1 1 1 1 1 1 1 1 1 
1 1 1 1 1 1 1 1 1 
1 1 1 1 1 1 1 1 1 
1 1 1 1 1 1 1 1 1 
1 1 1 1 1 1 1 1 1 
1 1 1 1 1 1 1 1 1 
1 1 1 1 1 1 1 1 1 
1 1 1 1 1 1 1 1 1 
1 1 1 1 1 1 1 1 1 
1 1 1 1 1 1 1 1 1 
1 1 1 1 1 1 1 1 1 
1 1 1 1 1 1 1 1 1 
1 1 1 1 1 1 1 1 1 
1 1 1 1 1 1 1 1 1 
1 1 1 1 1 1 1 1 1 
1 1 1 1 1 1 1 1 1 
1 1 1 1 1 1 1 1 1 
1 1 1 1 1 1 1 1 1 
1 1 1 1 1 1 1 1 1 
1 1 1 1 1 1 1 1 1 
1 1 1 1 1 1 1 1 1 
1 1 1 1 1 1 1 1 1 
1 1 1 1 1 1 1 1 1 
1 1 1 1 1 1 1 1 1 
1 1 1 1 1 1 1 1 1 
1 1 1 1 1 1 1 1 1 
1 1 1 1 1 1 1 1 1 
1 1 1 1 1 1 1 1 1 
1 1 1 1 1 1 1 1 1 
1 1 1 1 1 1 1 1 1 
1 1 1 1 1 1 1 1 1 
1 1 1 1 1 1 1 1 1 
1 1 1 1 1 1 1 1 1 
1 1 1 1 1 1 1 1 1 
1 1 1 1 1 1 1 1 1 
1 1 1 1 1 1 1 1 1 
1 1 1 1 1 1 1 1 1 
1 1 1 1 1 1 1 1 1 
1 1 1 1 1 1 1 1 1 
1 1 1 1 1 1 1 1 1 
1 1 1 1 1 1 1 1 1 
1 1 1 1 1 1 1 1 1 
1 1 1 1 1 1 1 1 1 
1 1 1 1 1 1 1 1 1 
1 1 1 1 1 1 1 1 1 
1 1 1 1 1 1 1 1 1 
1 1 1 1 1 1 1 1 1 
1 1 1 1 1 1 1 1 1 
1 1 1 1 1 1 1 1 1 
1 1 1 1 1 1 1 1 1 
1 1 1 1 1 1 1 1 1 
1 1 1 1 1 1 1 1 1 
1 1 1 1 1 1 1 1 1 
1 1 1 1 1 1 1 1 1 
1 1 1 1 1 1 1 1 1 
1 1 1 1 1 1 1 1 1 
1 1 1 1 1 1 1 1 1 
1 1 1 1 1 1 1 1 1 
1 1 1 1 1 1 1 1 1 
1 1 1 1 1 1 1 1 1 
1 1 1 1 1 1 1 1 1 
1 1 1 1 1 1 1 1 1 
1 1 1 1 1 1 1 1 1 
1 1 1 1 1 1 1 1 1 
1 1 1 1 1 1 1 1 1 
1 1 1 1 1 1 1 1 1 
1 1 1 1 1 1 1 1 1 
1 1 1 1 1 1 1 1 1 
1 1 1 1 1 1 1 1 1 
1 1 1 1 1 1 1 1 1 
1 1 1 1 1 1 1 1 1 
1 1 1 1 1 1 1 1 1 
1 1 1 1 1 1 1 1 1 
1 1 1 1 1 1 1 1 1 
1 1 1 1 1 1 1 1 1 
1 1 1 1 1 1 1 1 1 
1 1 1 1 1 1 1 1 1 
1 1 1 1 1 1 1 1 1 
1 1 1 1 1 1 1 1 1 
1 1 1 1 1 1 1 1 1 
1 1 1 1 1 1 1 1 1 
1 1 1 1 1 1 1 1 1 
1 1 1 1 1 1 1 1 1 
1 1 1 1 1 1 1 1 1 
1 1 1 1 1 1 1 1 1 
1 1 1 1 1 1 1 1 1 
1 1 1 1 1 1 1 1 1 
1 1 1 1 1 1 1 1 1 
1 1 1 1 1 1 1 1 1 
1 1 1 1 1 1 1 1 1 
1 1 1 1 1 1 1 1 1 
1 1 1 1 1 1 1 1 1 
1 1 1 1 1 1 1 1 1 
1 1 1 1 1 1 1 1 1 
1 1 1 1 1 1 1 1 1 
1 1 1 1 1 1 1 1 1 
1 1 1 1 1 1 1 1 1 
1 1 1 1 1 1 1 1 1 
1 1 1 1 1 1 1 1 1 
1 1 1 1 1 1 1 1 1 
1 1 1 1 1 1 1 1 1 
1 1 1 1 1 1 1 1 1 
1 1 1 1 1 1 1 1 1 
1 1 1 1 1 1 1 1 1 
1 1 1 1 1 1 1 1 1 
1 1 1 1 1 1 1 1 1 
1 1 1 1 1 1 1 1 1 
1 1 1 1 1 1 1 1 1 
1 1 1 1 1 1 1 1 1 
1 1 1 1 1 1 1 1 1 
1 1 1 1 1 1 1 1 1 
1 1 1 1 1 1 1 1 1 
1 1 1 1 1 1 1 1 1 
1 1 1 1 1 1 1 1 1 
1 1 1 1 1 1 1 1 1 
1 1 1 1 1 1 1 1 1 
1 1 1 1 1 1 1 1 1 
1 1 1 1 1 1 1 1 1 
1 1 1 1 1 1 1 1 1 
1 1 1 1 1 1 1 1 1 
1 1 1 1 1 1 1 1 1 
1 1 1 1 1 1 1 1 1 
1 1 1 1 1 1 1 1 1 
1 1 1 1 1 1 1 1 1 
1 1 1 1 1 1 1 1 1 
1 1 1 1 1 1 1 1 1 
1 1 1 1 1 1 1 1 1 
1 1 1 1 1 1 1 1 1 
1 1 1 1 1 1 1 1 1 
1 1 1 1 1 1 1 1 1 
1 1 1 1 1 1 1 1 1 
1 1 1 1 1 1 1 1 1 
1 1 1 1 1 1 1 1 1 
1 1 1 1 1 1 1 1 1 
1 1 1 1 1 1 1 1 1 
1 1 1 1 1 1 1 1 1 
1 1 1 1 1 1 1 1 1 
1 1 1 1 1 1 1 1 1 
1 1 1 1 1 1 1 1 1 
1 1 1 1 1 1 1 1 1 
1 1 1 1 1 1 1 1 1 
1 1 1 1 1 1 1 1 1 
1 1 1 1 1 1 1 1 1 
1 1 1 1 1 1 1 1 1 
1 1 1 1 1 1 1 1 1 
1 1 1 1 1 1 1 1 1 
1 1 1 1 1 1 1 1 1 
1 1 1 1 1 1 1 1 1 
1 1 1 1 1 1 1 1 1 
1 1 1 1 1 1 1 1 1 
1 1 1 1 1 1 1 1 1 
1 1 1 1 1 1 1 1 1 
1 1 1 1 1 1 1 1 1 
1 1 1 1 1 1 1 1 1 
1 1 1 1 1 1 1 1 1 
1 1 1 1 1 1 1 1 1 
1 1 1 1 1 1 1 1 1 
1 1 1 1 1 1 1 1 1 
1 1 1 1 1 1 1 1 1 
1 1 1 1 1 1 1 1 1 
1 1 1 1 1 1 1 1 1 
1 1 1 1 1 1 1 1 1 
1 1 1 1 1 1 1 1 1 
1 1 1 1 1 1 1 1 1 
1 1 1 1 1 1 1 1 1 
1 1 1 1 1 1 1 1 1 
1 1 1 1 1 1 1 1 1 
1 1 1 1 1 1 1 1 1 
1 1 1 1 1 1 1 1 1 
1 1 1 1 1 1 1 1 1 
1 1 1 1 1 1 1 1 1 
1 1 1 1 1 1 1 1 1 
1 1 1 1 1 1 1 1 1 
1 1 1 1 1 1 1 1 1 
1 1 1 1 1 1 1 1 1 
1 1 1 1 1 1 1 1 1 
1 1 1 1 1 1 1 1 1 
1 1 1 1 1 1 1 1 1 
1 1 1 1 1 1 1 1 1 
1 1 1 1 1 1 1 1 1 
1 1 1 1 1 1 1 1 1 
1 1 1 1 1 1 1 1 1 
1 1 1 1 1 1 1 1 1 
1 1 1 1 1 1 1 1 1 
1 1 1 1 1 1 1 1 1 
1 1 1 1 1 1 1 1 1 
1 1 1 1 1 1 1 1 1 
1 1 1 1 1 1 1 1 1 
1 1 1 1 1 1 1 1 1 
1 1 1 1 1 1 1 1 1 
1 1 1 1 1 1 1 1 1 
1 1 1 1 1 1 1 1 1 
1 1 1 1 1 1 1 1 1 
1 1 1 1 1 1 1 1 1 
1 1 1 1 1 1 1 1 1 
1 1 1 1 1 1 1 1 1 
1 1 1 1 1 1 1 1 1 
1 1 1 1 1 1 1 1 1 
1 1 1 1 1 1 1 1 1 
1 1 1 1 1 1 1 1 1 
1 1 1 1 1 1 1 1 1 
1 1 1 1 1 1 1 1 1 
1 1 1 1 1 1 1 1 1 
1 1 1 1 1 1 1 1 1 
1 1 1 1 1 1 1 1 1 
1 1 1 1 1 1 1 1 1 
1 1 1 1 1 1 1 1 1 
1 1 1 1 1 1 1 1 1 
1 1 1 1 1 1 1 1 1 
1 1 1 1 1 1 1 1 1 
1 1 1 1 1 1 1 1 1 
1 1 1 1 1 1 1 1 1 
1 1 1 1 1 1 1 1 1 
1 1 1 1 1 1 1 1 1 
1 1 1 1 1 1 1 1 1 
1 1 1 1 1 1 1 1 1 
1 1 1 1 1 1 1 1 1 
1 1 1 1 1 1 1 1 1 
1 1 1 1 1 1 1 1 1 
1 1 1 1 1 1 1 1 1 
1 1 1 1 1 1 1 1 1 
1 1 1 1 1 1 1 1 1 
1 1 1 1 1 1 1 1 1 
1 1 1 1 1 1 1 1 1 
1 1 1 1 1 1 1 1 1 
1 1 1 1 1 1 1 1 1 
1 1 1 1 1 1 1 1 1 
1 1 1 1 1 1 1 1 1 
1 1 1 1 1 1 1 1 1 
1 1 1 1 1 1 1 1 1 
1 1 1 1 1 1 1 1 1 
1 1 1 1 1 1 1 1 1 
1 1 1 1 1 1 1 1 1 
1 1 1 1 1 1 1 1 1 
1 1 1 1 1 1 1 1 1 
1 1 1 1 1 1 1 1 1 
1 1 1 1 1 1 1 1 1 
1 1 1 1 1 1 1 1 1 
1 1 1 1 1 1 1 1 1 
1 1 1 1 1 1 1 1 1 
1 1 1 1 1 1 1 1 1 
1 1 1 1 1 1 1 1 1 
1 1 1 1 1 1 1 1 1 
1 1 1 1 1 1 1 1 1 
1 1 1 1 1 1 1 1 1 
1 1 1 1 1 1 1 1 1 
1 1 1 1 1 1 1 1 1 
1 1 1 1 1 1 1 1 1 
1 1 1 1 1 1 1 1 1 
1 1 1 1 1 1 1 1 1 
1 1 1 1 1 1 1 1 1 
1 1 1 1 1 1 1 1 1 
1 1 1 1 1 1 1 1 1 
1 1 1 1 1 1 1 1 1 
1 1 1 1 1 1 1 1 1 
1 1 1 1 1 1 1 1 1 
1 1 1 1 1 1 1 1 1 
1 1 1 1 1 1 1 1 1 
1 1 1 1 1 1 1 1 1 
1 1 1 1 1 1 1 1 1 
1 1 1 1 1 1 1 1 1 
1 1 1 1 1 1 1 1 1 
1 1 1 1 1 1 1 1 1 
1 1 1 1 1 1 1 1 1 
1 1 1 1 1 1 1 1 1 
1 1 1 1 1 1 1 1 1 
1 1 1 1 1 1 1 1 1 
1 1 1 1 1 1 1 1 1 
1 1 1 1 1 1 1 1 1 
1 1 1 1 1 1 1 1 1 
1 1 1 1 1 1 1 1 1 
1 1 1 1 1 1 1 1 1 
1 1 1 1 1 1 1 1 1 
1 1 1 1 1 1 1 1 1 
1 1 1 1 1 1 1 1 1 
1 1 1 1 1 1 1 1 1 
1 1 1 1 1 1 1 1 1 
1 1 1 1 1 1 1 1 1 
1 1 1 1 1 1 1 1 1 
1 1 1 1 1 1 1 1 1 
1 1 1 1 1 1 1 1 1 
1 1 1 1 1 1 1 1 1 
1 1 1 1 1 1 1 1 1 
1 1 1 1 1 1 1 1 1 
1 1 1 1 1 1 1 1 1 
1 1 1 1 1 1 1 1 1 
1 1 1 1 1 1 1 1 1 
1 1 1 1 1 1 1 1 1 
1 1 1 1 1 1 1 1 1 
1 1 1 1 1 1 1 1 1 
1 1 1 1 1 1 1 1 1 
1 1 1 1 1 1 1 1 1 
1 1 1 1 1 1 1 1 1 
1 1 1 1 1 1 1 1 1 
1 1 1 1 1 1 1 1 1 
1 1 1 1 1 1 1 1 1 
1 1 1 1 1 1 1 1 1 
1 1 1 1 1 1 1 1 1 
1 1 1 1 1 1 1 1 1 
1 1 1 1 1 1 1 1 1 
1 1 1 1 1 1 1 1 1 
1 1 1 1 1 1 1 1 1 
1 1 1 1 1 1 1 1 1 
1 1 1 1 1 1 1 1 1 
1 1 1 1 1 1 1 1 1 
1 1 1 1 1 1 1 1 1 
1 1 1 1 1 1 1 1 1 
1 1 1 1 1 1 1 1 1 
1 1 1 1 1 1 1 1 1 
1 1 1 1 1 1 1 1 1 
1 1 1 1 1 1 1 1 1 
1 1 1 1 1 1 1 1 1 
1 1 1 1 1 1 1 1 1 
1 1 1 1 1 1 1 1 1 
1 1 1 1 1 1 1 1 1 
1 1 1 1 1 1 1 1 1 
1 1 1 1 1 1 1 1 1 
1 1 1 1 1 1 1 1 1 
1 1 1 1 1 1 1 1 1 
1 1 1 1 1 1 1 1 1 
1 1 1 1 1 1 1 1 1 
1 1 1 1 1 1 1 1 1 
1 1 1 1 1 1 1 1 1 
1 1 1 1 1 1 1 1 1 
1 1 1 1 1 1 1 1 1 
1 1 1 1 1 1 1 1 1 
1 1 1 1 1 1 1 1 1 
1 1 1 1 1 1 1 1 1 
1 1 1 1 1 1 1 1 1 
1 1 1 1 1 1 1 1 1 
1 1 1 1 1 1 1 1 1 
1 1 1 1 1 1 1 1 1 
1 1 1 1 1 1 1 1 1 
1 1 1 1 1 1 1 1 1 
1 1 1 1 1 1 1 1 1 
1 1 1 1 1 1 1 1 1 
1 1 1 1 1 1 1 1 1 
1 1 1 1 1 1 1 1 1 
1 1 1 1 1 1 1 1 1 
1 1 1 1 1 1 1 1 1 
1 1 1 1 1 1 1 1 1 
1 1 1 1 1 1 1 1 1 
1 1 1 1 1 1 1 1 1 
1 1 1 1 1 1 1 1 1 
1 1 1 1 1 1 1 1 1 
1 1 1 1 1 1 1 1 1 
1 1 1 1 1 1 1 1 1 
1 1 1 1 1 1 1 1 1 
1 1 1 1 1 1 1 1 1 
1 1 1 1 1 1 1 1 1 
1 1 1 1 1 1 1 1 1 
1 1 1 1 1 1 1 1 1 
1 1 1 1 1 1 1 1 1 
1 1 1 1 1 1 1 1 1 
1 1 1 1 1 1 1 1 1 
1 1 1 1 1 1 1 1 1 
1 1 1 1 1 1 1 1 1 
1 1 1 1 1 1 1 1 1 
1 1 1 1 1 1 1 1 1 
1 1 1 1 1 1 1 1 1 
1 1 1 1 1 1 1 1 1 
1 1 1 1 1 1 1 1 1 
1 1 1 1 1 1 1 1 1 
1 1 1 1 1 1 1 1 1 
1 1 1 1 1 1 1 1 1 
1 1 1 1 1 1 1 1 1 
1 1 1 1 1 1 1 1 1 
1 1 1 1 1 1 1 1 1 
1 1 1 1 1 1 1 1 1 
1 1 1 1 1 1 1 1 1 
1 1 1 1 1 1 1 1 1 
1 1 1 1 1 1 1 1 1 
1 1 1 1 1 1 1 1 1 
1 1 1 1 1 1 1 1 1 
1 1 1 1 1 1 1 1 1 
1 1 1 1 1 1 1 1 1 
1 1 1 1 1 1 1 1 1 
1 1 1 1 1 1 1 1 1 
1 1 1 1 1 1 1 1 1 
1 1 1 1 1 1 1 1 1 
1 1 1 1 1 1 1 1 1 
1 1 1 1 1 1 1 1 1 
1 1 1 1 1 1 1 1 1 
1 1 1 1 1 1 1 1 1 
1 1 1 1 1 1 1 1 1 
1 1 1 1 1 1 1 1 1 
1 1 1 1 1 1 1 1 1 
1 1 1 1 1 1 1 1 1 
1 1 1 1 1 1 1 1 1 
1 1 1 1 1 1 1 1 1 
1 1 1 1 1 1 1 1 1 
1 1 1 1 1 1 1 1 1 
1 1 1 1 1 1 1 1 1 
1 1 1 1 1 1 1 1 1 
1 1 1 1 1 1 1 1 1 
1 1 1 1 1 1 1 1 1 
1 1 1 1 1 1 1 1 1 
1 1 1 1 1 1 1 1 1 
1 1 1 1 1 1 1 1 1 
1 1 1 1 1 1 1 1 1 
1 1 1 1 1 1 1 1 1 
1 1 1 1 1 1 1 1 1 
1 1 1 1 1 1 1 1 1 
1 1 1 1 1 1 1 1 1 
1 1 1 1 1 1 1 1 1 
1 1 1 1 1 1 1 1 1 
1 1 1 1 1 1 1 1 1 
1 1 1 1 1 1 1 1 1 
1 1 1 1 1 1 1 1 1 
1 1 1 1 1 1 1 1 1 
1 1 1 1 1 1 1 1 1 
1 1 1 1 1 1 1 1 1 
1 1 1 1 1 1 1 1 1 
1 1 1 1 1 1 1 1 1 
1 1 1 1 1 1 1 1 1 
1 1 1 1 1 1 1 1 1 
1 1 1 1 1 1 1 1 1 
1 1 1 1 1 1 1 1 1 
1 1 1 1 1 1 1 1 1 
1 1 1 1 1 1 1 1 1 
1 1 1 1 1 1 1 1 1 
1 1 1 1 1 1 1 1 1 
1 1 1 1 1 1 1 1 1 
1 1 1 1 1 1 1 1 1 
1 1 1 1 1 1 1 1 1 
1 1 1 1 1 1 1 1 1 
1 1 1 1 1 1 1 1 1 
1 1 1 1 1 1 1 1 1 
1 1 1 1 1 1 1 1 1 
1 1 1 1 1 1 1 1 1 
1 1 1 1 1 1 1 1 1 
1 1 1 1 1 1 1 1 1 
1 1 1 1 1 1 1 1 1 
1 1 1 1 1 1 1 1 1 
1 1 1 1 1 1 1 1 1 
1 1 1 1 1 1 1 1 1 
1 1 1 1 1 1 1 1 1 
1 1 1 1 1 1 1 1 1 
1 1 1 1 1 1 1 1 1 
1 1 1 1 1 1 1 1 1 
1 1 1 1 1 1 1 1 1 
1 1 1 1 1 1 1 1 1 
1 1 1 1 1 1 1 1 1 
1 1 1 1 1 1 1 1 1 
1 1 1 1 1 1 1 1 1 
1 1 1 1 1 1 1 1 1 
1 1 1 1 1 1 1 1 1 
1 1 1 1 1 1 1 1 1 
1 1 1 1 1 1 1 1 1 
1 1 1 1 1 1 1 1 1 
1 1 1 1 1 1 1 1 1 
1 1 1 1 1 1 1 1 1 
1 1 1 1 1 1 1 1 1 
1 1 1 1 1 1 1 1 1 
1 1 1 1 1 1 1 1 1 
1 1 1 1 1 1 1 1 1 
1 1 1 1 1 1 1 1 1 
1 1 1 1 1 1 1 1 1 
1 1 1 1 1 1 1 1 1 
1 1 1 1 1 1 1 1 1 
1 1 1 1 1 1 1 1 1 
1 1 1 1 1 1 1 1 1 
1 1 1 1 1 1 1 1 1 
1 1 1 1 1 1 1 1 1 
1 1 1 1 1 1 1 1 1 
1 1 1 1 1 1 1 1 1 
1 1 1 1 1 1 1 1 1 
1 1 1 1 1 1 1 1 1 
1 1 1 1 1 1 1 1 1 
1 1 1 1 1 1 1 1 1 
1 1 1 1 1 1 1 1 1 
1 1 1 1 1 1 1 1 1 
1 1 1 1 1 1 1 1 1 
1 1 1 1 1 1 1 1 1 
1 1 1 1 1 1 1 1 1 
1 1 1 1 1 1 1 1 1 
1 1 1 1 1 1 1 1 1 
1 1 1 1 1 1 1 1 1 
1 1 1 1 1 1 1 1 1 
1 1 1 1 1 1 1 1 1 
1 1 1 1 1 1 1 1 1 
1 1 1 1 1 1 1 1 1 
1 1 1 1 1 1 1 1 1 
1 1 1 1 1 1 1 1 1 
1 1 1 1 1 1 1 1 1 
1 1 1 1 1 1 1 1 1 
1 1 1 1 1 1 1 1 1 
1 1 1 1 1 1 1 1 1 
1 1 1 1 1 1 1 1 1 
1 1 1 1 1 1 1 1 1 
1 1 1 1 1 1 1 1 1 
1 1 1 1 1 1 1 1 1 
1 1 1 1 1 1 1 1 1 
1 1 1 1 1 1 1 1 1 
1 1 1 1 1 1 1 1 1 
1 1 1 1 1 1 1 1 1 
1 1 1 1 1 1 1 1 1 
1 1 1 1 1 1 1 1 1 
1 1 1 1 1 1 1 1 1 
1 1 1 1 1 1 1 1 1 
1 1 1 1 1 1 1 1 1 
1 1 1 1 1 1 1 1 1 
1 1 1 1 1 1 1 1 1 
1 1 1 1 1 1 1 1 1 
1 1 1 1 1 1 1 1 1 
1 1 1 1 1 1 1 1 1 
1 1 1 1 1 1 1 1 1 
1 1 1 1 1 1 1 1 1 
1 1 1 1 1 1 1 1 1 
1 1 1 1 1 1 1 1 1 
1 1 1 1 1 1 1 1 1 
1 1 1 1 1 1 1 1 1 
1 1 1 1 1 1 1 1 1 
1 1 1 1 1 1 1 1 1 
1 1 1 1 1 1 1 1 1 
1 1 1 1 1 1 1 1 1 
1 1 1 1 1 1 1 1 1 
1 1 1 1 1 1 1 1 1 
1 1 1 1 1 1 1 1 1 
1 1 1 1 1 1 1 1 1 
1 1 1 1 1 1 1 1 1 
1 1 1 1 1 1 1 1 1 
1 1 1 1 1 1 1 1 1 
1 1 1 1 1 1 1 1 1 
1 1 1 1 1 1 1 1 1 
1 1 1 1 1 1 1 1 1 
1 1 1 1 1 1 1 1 1 
1 1 1 1 1 1 1 1 1 
1 1 1 1 1 1 1 1 1 
1 1 1 1 1 1 1 1 1 
1 1 1 1 1 1 1 1 1 
1 1 1 1 1 1 1 1 1 
1 1 1 1 1 1 1 1 1 
1 1 1 1 1 1 1 1 1 
1 1 1 1 1 1 1 1 1 
1 1 1 1 1 1 1 1 1 
1 1 1 1 1 1 1 1 1 
1 1 1 1 1 1 1 1 1 
1 1 1 1 1 1 1 1 1 
1 1 1 1 1 1 1 1 1 
1 1 1 1 1 1 1 1 1 
1 1 1 1 1 1 1 1 1 
1 1 1 1 1 1 1 1 1 
1 1 1 1 1 1 1 1 1 
1 1 1 1 
FIELD FieldData 1
GlobalElementID 1 5791 int
1 2 3 4 5 6 7 8 9 
10 11 12 13 14 15 16 17 18 
19 20 21 22 23 24 25 26 27 
28 29 30 31 32 33 34 35 36 
37 38 39 40 41 42 43 44 45 
46 47 48 49 50 51 52 53 54 
55 56 57 58 59 60 61 62 63 
64 65 66 67 68 69 70 71 72 
73 74 75 76 77 78 79 80 81 
82 83 84 85 86 87 88 89 90 
91 92 93 94 95 96 97 98 99 
100 101 102 103 104 105 106 107 108 
109 110 111 112 113 114 115 116 117 
118 119 120 121 122 123 124 125 126 
127 128 129 130 131 132 133 134 135 
136 137 138 139 140 141 142 143 144 
145 146 147 148 149 150 151 152 153 
154 155 156 157 158 159 160 161 162 
163 164 165 166 167 168 169 170 171 
172 173 174 175 176 177 178 179 180 
181 182 183 184 185 186 187 188 189 
190 191 192 193 194 195 196 197 198 
199 200 201 202 203 204 205 206 207 
208 209 210 211 212 213 214 215 216 
217 218 219 220 221 222 223 224 225 
226 227 228 229 230 231 232 233 234 
235 236 237 238 239 240 241 242 243 
244 245 246 247 248 249 250 251 252 
253 254 255 256 257 258 259 260 261 
262 263 264 265 266 267 268 269 270 
271 272 273 274 275 276 277 278 279 
280 281 282 283 284 285 286 287 288 
289 290 291 292 293 294 295 296 297 
298 299 300 301 302 303 304 305 306 
307 308 309 310 311 312 313 314 315 
316 317 318 319 320 321 322 323 324 
325 326 327 328 329 330 331 332 333 
334 335 336 337 338 339 340 341 342 
343 344 345 346 347 348 349 350 351 
352 353 354 355 356 357 358 359 360 
361 362 363 364 365 366 367 368 369 
370 371 372 373 374 375 376 377 378 
379 380 381 382 383 384 385 386 387 
388 389 390 391 392 393 394 395 396 
397 398 399 400 401 402 403 404 405 
406 407 408 409 410 411 412 413 414 
415 416 417 418 419 420 421 422 423 
424 425 426 427 428 429 430 431 432 
433 434 435 436 437 438 439 440 441 
442 443 444 445 446 447 448 449 450 
451 452 453 454 455 456 457 458 459 
460 461 462 463 464 465 466 467 468 
469 470 471 472 473 474 475 476 477 
478 479 480 481 482 483 484 485 486 
487 488 489 490 491 492 493 494 495 
496 497 498 499 500 501 502 503 504 
505 506 507 508 509 510 511 512 513 
514 515 516 517 518 519 520 521 522 
523 524 525 526 527 528 529 530 531 
532 533 534 535 536 537 538 539 540 
541 542 543 544 545 546 547 548 549 
550 551 552 553 554 555 556 557 558 
559 560 561 562 563 564 565 566 567 
568 569 570 571 572 573 574 575 576 
577 578 579 580 581 582 583 584 585 
586 587 588 589 590 591 592 593 594 
595 596 597 598 599 600 601 602 603 
604 605 606 607 608 609 610 611 612 
613 614 615 616 617 618 619 620 621 
622 623 624 625 626 627 628 629 630 
631 632 633 634 635 636 637 638 639 
640 641 642 643 644 645 646 647 648 
649 650 651 652 653 654 655 656 657 
658 659 660 661 662 663 664 665 666 
667 668 669 670 671 672 673 674 675 
676 677 678 679 680 681 682 683 684 
685 686 687 688 689 690 691 692 693 
694 695 696 697 698 699 700 701 702 
703 704 705 706 707 708 709 710 711 
712 713 714 715 716 717 718 719 720 
721 722 723 724 725 726 727 728 729 
730 731 732 733 734 735 736 737 738 
739 740 741 742 743 744 745 746 747 
748 749 750 751 752 753 754 755 756 
757 758 759 760 761 762 763 764 765 
766 767 768 769 770 771 772 773 774 
775 776 777 778 779 780 781 782 783 
784 785 786 787 788 789 790 791 792 
793 794 795 796 797 798 799 800 801 
802 803 804 805 806 807 808 809 810 
811 812 813 814 815 816 817 818 819 
820 821 822 823 824 825 826 827 828 
829 830 831 832 833 834 835 836 837 
838 839 840 841 842 843 844 845 846 
847 848 849 850 851 852 853 854 855 
856 857 858 859 860 861 862 863 864 
865 866 867 868 869 870 871 872 873 
874 875 876 877 878 879 880 881 882 
883 884 885 886 887 888 889 890 891 
892 893 894 895 896 897 898 899 900 
901 902 903 904 905 906 907 908 909 
910 911 912 913 914 915 916 917 918 
919 920 921 922 923 924 925 926 927 
928 929 930 931 932 933 934 935 936 
937 938 939 940 941 942 943 944 945 
946 947 948 949 950 951 952 953 954 
955 956 957 958 959 960 961 962 963 
964 965 966 967 968 969 970 971 972 
973 974 975 976 977 978 979 980 981 
982 983 984 985 986 987 988 989 990 
991 992 993 994 995 996 997 998 999 
1000 1001 1002 1003 1004 1005 1006 1007 1008 
1009 1010 1011 1012 1013 1014 1015 1016 1017 
1018 1019 1020 1021 1022 1023 1024 1025 1026 
1027 1028 1029 1030 1031 1032 1033 1034 1035 
1036 1037 1038 1039 1040 1041 1042 1043 1044 
1045 1046 1047 1048 1049 1050 1051 1052 1053 
1054 1055 1056 1057 1058 1059 1060 1061 1062 
1063 1064 1065 1066 1067 1068 1069 1070 1071 
1072 1073 1074 1075 1076 1077 1078 1079 1080 
1081 1082 1083 1084 1085 1086 1087 1088 1089 
1090 1091 1092 1093 1094 1095 1096 1097 1098 
1099 1100 1101 1102 1103 1104 1105 1106 1107 
1108 1109 1110 1111 1112 1113 1114 1115 1116 
1117 1118 1119 1120 1121 1122 1123 1124 1125 
1126 1127 1128 1129 1130 1131 1132 1133 1134 
1135 1136 1137 1138 1139 1140 1141 1142 1143 
1144 1145 1146 1147 1148 1149 1150 1151 1152 
1153 1154 1155 1156 1157 1158 1159 1160 1161 
1162 1163 1164 1165 1166 1167 1168 1169 1170 
1171 1172 1173 1174 1175 1176 1177 1178 1179 
1180 1181 1182 1183 1184 1185 1186 1187 1188 
1189 1190 1191 1192 1193 1194 1195 1196 1197 
1198 1199 1200 1201 1202 1203 1204 1205 1206 
1207 1208 1209 1210 1211 1212 1213 1214 1215 
1216 1217 1218 1219 1220 1221 1222 1223 1224 
1225 1226 1227 1228 1229 1230 1231 1232 1233 
1234 1235 1236 1237 1238 1239 1240 1241 1242 
1243 1244 1245 1246 1247 1248 1249 1250 1251 
1252 1253 1254 1255 1256 1257 1258 1259 1260 
1261 1262 1263 1264 1265 1266 1267 1268 1269 
1270 1271 1272 1273 1274 1275 1276 1277 1278 
1279 1280 1281 1282 1283 1284 1285 1286 1287 
1288 1289 1290 1291 1292 1293 1294 1295 1296 
1297 1298 1299 1300 1301 1302 1303 1304 1305 
1306 1307 1308 1309 1310 1311 1312 1313 1314 
1315 1316 1317 1318 1319 1320 1321 1322 1323 
1324 1325 1326 1327 1328 1329 1330 1331 1332 
1333 1334 1335 1336 1337 1338 1339 1340 1341 
1342 1343 1344 1345 1346 1347 1348 1349 1350 
1351 1352 1353 1354 1355 1356 1357 1358 1359 
1360 1361 1362 1363 1364 1365 1366 1367 1368 
1369 1370 1371 1372 1373 1374 1375 1376 1377 
1378 1379 1380 1381 1382 1383 1384 1385 1386 
1387 1388 1389 1390 1391 1392 1393 1394 1395 
1396 1397 1398 1399 1400 1401 1402 1403 1404 
1405 1406 1407 1408 1409 1410 1411 1412 1413 
1414 1415 1416 1417 1418 1419 1420 1421 1422 
1423 1424 1425 1426 1427 1428 1429 1430 1431 
1432 1433 1434 1435 1436 1437 1438 1439 1440 
1441 1442 1443 1444 1445 1446 1447 1448 1449 
1450 1451 1452 1453 1454 1455 1456 1457 1458 
1459 1460 1461 1462 1463 1464 1465 1466 1467 
1468 1469 1470 1471 1472 1473 1474 1475 1476 
1477 1478 1479 1480 1481 1482 1483 1484 1485 
1486 1487 1488 1489 1490 1491 1492 1493 1494 
1495 1496 1497 1498 1499 1500 1501 1502 1503 
1504 1505 1506 1507 1508 1509 1510 1511 1512 
1513 1514 1515 1516 1517 1518 1519 1520 1521 
1522 1523 1524 1525 1526 1527 1528 1529 1530 
1531 1532 1533 1534 1535 1536 1537 1538 1539 
1540 1541 1542 1543 1544 1545 1546 1547 1548 
1549 1550 1551 1552 1553 1554 1555 1556 1557 
1558 1559 1560 1561 1562 1563 1564 1565 1566 
1567 1568 1569 1570 1571 1572 1573 1574 1575 
1576 1577 1578 1579 1580 1581 1582 1583 1584 
1585 1586 1587 1588 1589 1590 1591 1592 1593 
1594 1595 1596 1597 1598 1599 1600 1601 1602 
1603 1604 1605 1606 1607 1608 1609 1610 1611 
1612 1613 1614 1615 1616 1617 1618 1619 1620 
1621 1622 1623 1624 1625 1626 1627 1628 1629 
1630 1631 1632 1633 1634 1635 1636 1637 1638 
1639 1640 1641 1642 1643 1644 1645 1646 1647 
1648 1649 1650 1651 1652 1653 1654 1655 1656 
1657 1658 1659 1660 1661 1662 1663 1664 1665 
1666 1667 1668 1669 1670 1671 1672 1673 1674 
1675 1676 1677 1678 1679 1680 1681 1682 1683 
1684 1685 1686 1687 1688 1689 1690 1691 1692 
1693 1694 1695 1696 1697 1698 1699 1700 1701 
1702 1703 1704 1705 1706 1707 1708 1709 1710 