# vtk DataFile Version 4.2
vtk output
ASCII
DATASET UNSTRUCTURED_GRID
POINTS 228 float
-0.135399 -0.205955 11.4333 0.138482 -0.855377 11.318 0.210321 -0.195466 10.7856 
-0.60336 -1.73112 9.28282 -0.82866 -1.98799 10.1588 -1.39747 -1.48216 9.69955 
1.16064 -0.180176 6.95614 1.13496 0.398329 6.25441 0.977003 0.595854 6.96474 
-0.190575 1.1223 6.45959 0.598945 1.03619 6.46557 0.220113 1.21643 5.93163 
0.314564 0.0828097 3.12282 0.90137 -0.2213 3.53844 0.418795 -0.593935 3.46123 
-1.0604 0.577417 10.0581 -1.60548 -0.219279 9.58272 -1.79943 -0.0379037 10.5396 
0.12022 -1.64405 9.87285 0.0695738 0.423377 10.1621 -0.284691 0.820481 9.22218 
-1.19017 -1.28319 8.87371 -0.476518 -1.58789 8.36484 0.249004 1.02342 7.3558 
-0.758275 0.778914 7.09872 0.652325 -0.609103 4.16067 -0.711238 0.116436 11.8848 
-0.374851 0.359873 10.9619 -1.23557 0.448461 11.0173 0.441902 -1.0469 5.42021 
0.159919 -1.31523 6.13934 -0.318101 -1.10836 5.41815 1.021 -0.602848 5.98921 
0.996907 -0.177967 8.60242 1.06571 -0.643756 7.80977 1.01706 0.297084 7.71585 
0.0514147 -0.0105961 3.1247 -0.0748405 -1.78161 10.9355 0.457815 -0.945338 10.4676 
0.807987 1.01248 5.72831 -1.41386 -0.524146 8.72829 -1.209 0.340938 8.88754 
1.18718 0.251463 5.37175 -1.79955 -1.65862 10.6481 -0.635137 -0.780775 4.69967 
-0.996375 -0.625359 5.4988 -1.17687 -0.460911 6.21894 -1.1819 0.114912 5.77506 
-1.12653 0.0104598 4.79105 0.481084 0.74806 8.45678 -0.568394 0.844374 8.13433 
-0.147382 -1.48461 11.9019 -0.117637 -0.803632 3.9831 0.173595 -0.967214 4.74634 
0.869798 1.09592 4.93568 -1.16672 -1.03009 7.96874 -1.18829 -0.714764 6.98666 
-0.409344 -1.48602 7.18555 -0.768301 -1.08368 6.20771 -1.20173 0.113773 6.66952 
-1.25137 0.02671 7.77615 0.794411 -1.14726 6.9777 -1.84213 -0.860026 10.1264 
-2.27054 -0.767039 11.155 0.484571 -1.46994 7.97548 -1.07541 -2.28886 11.0076 
-0.866826 0.760264 6.17207 -0.93655 0.762769 5.31183 -0.846455 1.0164 3.77511 
-0.529285 0.533533 3.2577 -1.08122 0.36268 3.90977 -1.2247 -0.512521 13.1914 
-1.39182 0.0154833 12.6627 -2.04021 -0.915431 13.2189 -1.34576 -2.60217 11.8164 
-0.526705 -2.16156 11.6319 -0.613256 -2.06253 12.4525 -0.84238 -0.374895 3.91445 
-0.870676 -1.05354 13.1518 -1.39533 -1.69758 13.2075 -0.508738 -1.21925 12.6789 
0.621588 0.23878 9.40794 -0.267461 -0.657242 12.0395 -2.12705 -2.43681 11.8535 
-2.25955 -2.20138 12.4884 -2.46367 -2.09655 11.8698 0.893693 -0.557612 4.98349 
1.17209 0.184099 4.32583 0.766696 -0.817639 9.46842 0.540049 -0.228257 10.1021 
-2.41181 -0.398092 12.1782 -2.57907 -1.73086 12.5333 -2.39326 -1.59887 11.5189 
-0.781166 -0.537174 12.7415 -1.6643 -1.11618 13.333 0.268793 -1.53848 8.92629 
-2.30608 -1.90968 12.6006 0.867009 -1.00132 8.57652 -0.372262 1.15774 5.6904 
-1.44403 -1.30877 13.3644 -1.04797 -0.818279 13.2522 0.612612 0.624863 3.19561 
0.421352 0.392552 3.16874 0.359868 0.679044 3.22213 -0.430191 1.22074 4.93204 
0.21439 1.29917 5.30376 0.166672 1.39486 4.56313 -2.41825 -1.17842 12.8842 
-2.70732 -1.10003 12.0261 -2.01425 -2.00342 12.7185 -1.9932 -2.35939 12.5618 
-0.592524 0.168934 3.19939 -1.54961 -0.894617 9.38183 -0.925535 0.849438 4.49542 
-1.81557 0.122462 11.5595 -2.0835 -1.75003 12.7999 0.0346186 0.248245 3.1703 
0.159395 0.41947 3.19121 -2.48199 -1.43491 12.7273 -2.23695 -1.39861 12.8808 
-0.230039 0.217294 3.18301 -0.127147 0.48146 3.22137 -2.01778 -1.26732 13.0649 
-2.02361 -1.53057 12.9371 -1.73132 -1.44876 13.1383 0.00746259 0.976949 3.2973 
-0.313829 1.14936 3.34879 0.0497118 1.47805 3.83414 0.315633 1.00355 3.28087 
-2.2787 -1.61534 12.7551 -0.290868 0.806516 3.28835 -1.93489 -2.16236 11.3874 
-1.65321 -2.17279 12.8392 -1.81889 -1.75878 12.943 0.199783 0.781547 3.25064 
-0.2398 -0.153865 3.11993 0.729549 1.32872 4.09385 -0.442972 1.30029 4.17649 
0.242803 0.593413 3.2154 0.0426694 0.672673 3.24264 -1.82203 -1.01446 11.894 
-0.0241929 -0.0233311 5.73071 0.0210357 -0.0392139 6.88049 -0.11491 -0.399779 8.04722 
-0.242486 0.304944 4.88157 -0.0971117 0.532786 4.06806 0.521594 -0.0819762 6.28432 
0.209457 -0.484377 8.8666 -0.938658 -1.27893 11.2477 -1.00516 -1.03759 12.0391 
-0.640767 -0.61657 9.28236 -0.418241 -0.314504 5.20336 -1.41799 -0.547039 11.1484 
-0.461908 0.489324 5.70551 -0.301238 -0.218432 4.37736 0.0795393 0.754037 3.69907 
0.0233318 -0.604178 5.52463 -0.14144 -0.588306 6.31337 -0.633965 -0.45886 10.7469 
-0.874902 -0.231131 9.98269 -0.498387 -0.424068 5.82376 0.354356 -0.589501 7.39627 
-1.84724 -1.833 12.0629 0.209992 -0.0263681 3.79862 0.238741 -0.279618 4.9265 
-0.62658 -1.17372 9.94493 -0.312398 0.334684 3.66227 -0.154742 -0.54284 9.89964 
-0.231514 -0.938793 10.4588 -0.4301 0.103081 6.32431 -1.1624 -1.01942 10.5221 
0.464228 0.371055 4.57473 0.21438 -0.940294 8.33932 -1.57823 -1.5385 11.4607 
0.24548 0.188628 3.48403 -0.528927 -0.762094 11.4191 0.464051 0.303812 5.30016 
-0.161359 0.779302 5.25884 -0.476601 -0.0275864 8.7071 0.129269 0.551224 5.7249 
-1.36316 -1.07938 12.8252 0.280962 -0.201506 4.35023 -1.23677 -0.36982 10.5095 
-0.774964 -1.58722 11.7908 -0.70046 -0.746315 8.51991 -1.16692 -0.809664 9.90386 
0.0479052 0.806504 4.68407 -0.395581 -0.684205 7.12073 0.180204 0.101283 8.46039 
-1.67436 -1.43541 12.4674 0.414221 0.43995 6.66649 0.491153 -0.508977 7.99368 
-1.33893 -0.969713 11.555 -2.05356 -1.62861 12.3848 -1.4136 -1.34078 11.9163 
-0.178738 -0.384292 10.4337 -0.191605 0.610528 6.19803 0.127421 0.500015 3.50353 
0.586571 0.0364549 7.25489 -0.632317 -0.106513 6.91397 -0.213124 -1.03524 8.92552 
-0.577877 -1.00231 10.9056 0.265298 0.0734267 7.81759 -0.155497 -0.0949343 9.34235 
0.285818 0.975174 4.18832 -0.427809 0.631049 4.48814 -0.270136 -0.135677 7.46375 
-0.245419 -0.995732 9.52074 0.33293 0.667693 6.19752 -0.0184391 0.19747 4.43986 
0.394891 -0.215958 5.44319 -0.995069 -0.453755 11.7521 0.151099 0.44874 7.20737 
-0.352633 0.223229 8.02031 -1.08481 -1.82933 11.363 -1.7229 -1.23866 12.8052 
-1.47205 -1.16569 11.009 -0.537231 0.217845 4.14695 0.208375 -0.62553 9.44061 
-1.472 -0.956776 12.3064 -1.36058 -1.87287 11.8276 -1.03974 -0.111924 11.0066 
-1.7049 -1.86013 12.4634 -0.360061 0.421079 6.82811 -0.167218 0.942171 4.26881 
-0.0652167 0.0611136 3.43523 0.364435 0.808452 5.12553 -0.711751 -0.276893 7.88947 

CELLS 869 4345
4 75 65 74 214 
4 47 59 46 169 
4 76 189 220 222 
4 96 129 115 193 
4 176 144 177 226 
4 55 40 184 227 
4 69 121 130 166 
4 1 0 158 175 
4 220 189 162 222 
4 163 166 174 225 
4 149 175 192 211 
4 186 106 204 224 
4 41 50 20 178 
4 106 127 204 224 
4 64 34 161 191 
4 17 16 159 182 
4 165 150 167 207 
4 51 82 1 175 
4 92 85 162 193 
4 140 63 192 216 
4 150 21 165 185 
4 19 2 27 195 
4 119 123 193 215 
4 146 141 169 196 
4 27 15 19 159 
4 23 9 10 190 
4 37 4 148 201 
4 104 137 106 224 
4 17 114 152 221 
4 123 129 119 193 
4 94 73 180 215 
4 141 144 177 179 
4 16 112 150 185 
4 74 75 214 220 
4 149 148 183 192 
4 116 117 121 197 
4 166 163 174 197 
4 41 60 50 213 
4 38 89 167 195 
4 75 76 183 220 
4 26 82 93 211 
4 176 39 179 208 
4 76 149 183 194 
4 50 23 49 213 
4 158 1 175 201 
4 176 146 179 210 
4 140 173 192 194 
4 199 187 206 227 
4 79 99 78 180 
4 31 53 151 156 
4 189 220 162 194 
4 107 108 140 193 
4 44 48 151 154 
4 162 140 189 194 
4 23 8 35 212 
4 198 161 202 206 
4 55 143 187 227 
4 3 150 165 207 
4 139 121 117 197 
4 29 31 30 156 
4 115 109 193 222 
4 150 21 184 200 
4 164 86 171 176 
4 55 22 143 184 
4 207 88 167 18 
4 31 30 156 157 
4 41 150 178 203 
4 206 143 213 227 
4 105 106 54 226 
4 144 67 177 205 
4 178 50 188 213 
4 105 98 104 177 
4 88 95 207 218 
4 148 149 175 192 
4 68 145 155 224 
4 192 149 211 219 
4 163 154 209 217 
4 25 53 86 164 
4 145 186 205 209 
4 2 38 1 168 
4 59 56 46 199 
4 73 71 94 180 
4 37 1 168 201 
4 10 8 23 190 
4 147 97 172 191 
4 144 67 153 177 
4 131 74 214 220 
4 101 155 197 204 
4 133 115 189 222 
4 169 190 196 223 
4 68 137 205 224 
4 93 72 211 219 
4 84 110 83 162 
4 85 84 83 162 
4 146 141 179 210 
4 180 149 189 219 
4 8 190 198 212 
4 68 145 205 217 
4 52 77 44 154 
4 127 125 128 155 
4 167 159 168 195 
4 55 40 21 184 
4 41 15 159 203 
4 23 50 212 213 
4 59 60 56 199 
4 1 2 168 195 
4 93 149 180 219 
4 140 162 173 194 
4 162 131 173 220 
4 105 104 106 186 
4 144 177 186 205 
4 34 61 64 161 
4 84 85 96 193 
4 74 83 162 220 
4 150 159 167 203 
4 64 161 172 191 
4 175 152 211 221 
4 140 90 215 219 
4 134 138 103 197 
4 24 50 60 213 
4 18 3 165 207 
4 101 103 102 197 
4 81 49 33 188 
4 146 6 190 198 
4 173 148 194 214 
4 16 15 17 159 
4 57 64 61 161 
4 6 61 34 161 
4 154 52 163 181 
4 225 217 163 166 
4 97 64 172 191 
4 145 163 166 197 
4 117 12 102 174 
4 152 114 211 221 
4 130 155 166 197 
4 176 177 179 226 
4 57 143 161 187 
4 145 68 205 224 
4 83 110 74 162 
4 61 146 157 161 
4 86 42 171 176 
4 0 27 2 158 
4 53 151 156 164 
4 131 85 83 162 
4 144 141 176 179 
4 92 85 131 162 
4 23 9 212 223 
4 61 30 57 187 
4 111 120 166 225 
4 50 24 23 212 
4 49 23 202 213 
4 142 169 199 223 
4 0 175 211 221 
4 37 18 165 168 
4 142 146 169 190 
4 80 79 78 180 
4 82 0 175 211 
4 43 4 5 170 
4 37 165 201 168 
4 177 144 186 226 
4 8 10 7 190 
4 163 155 174 197 
4 22 95 64 172 
4 173 140 192 216 
4 100 93 78 180 
4 35 8 6 198 
4 154 77 217 225 
4 141 164 176 210 
4 50 24 212 213 
4 142 157 187 199 
4 155 145 204 224 
4 145 68 155 166 
4 30 61 157 187 
4 66 98 9 196 
4 21 40 150 184 
4 67 104 98 177 
4 141 151 164 210 
4 34 64 97 191 
4 154 164 181 209 
4 143 178 213 227 
4 26 0 211 221 
4 27 2 158 195 
4 51 37 148 201 
4 147 143 178 188 
4 7 146 190 208 
4 186 145 205 224 
4 54 176 39 226 
4 145 155 163 197 
4 63 114 140 152 
4 57 64 161 172 
4 190 142 198 212 
4 149 76 189 194 
4 148 170 214 216 
4 27 158 159 195 
4 76 79 180 189 
4 131 43 173 214 
4 3 4 18 165 
4 48 113 205 217 
4 66 47 153 169 
4 158 1 168 195 
4 59 24 60 199 
4 90 107 140 215 
4 63 152 192 216 
4 129 91 118 193 
4 12 36 14 174 
4 98 11 9 196 
4 130 121 139 197 
4 45 44 48 151 
4 141 179 196 208 
4 163 154 181 209 
4 152 62 170 216 
4 33 49 35 188 
4 2 38 168 195 
4 74 132 76 222 
4 87 86 171 181 
4 6 7 146 190 
4 156 29 164 210 
[...]
CELL_DATA 869
SCALARS ModelRegionID int
LOOKUP_TABLE default
1 1 1 1 1 1 1 1 1 
1 1 1 1 1 1 1 1 1 
1 1 1 1 1 1 1 1 1 
1 1 1 1 1 1 1 1 1 
1 1 1 1 1 1 1 1 1 
1 1 1 1 1 1 1 1 1 
1 1 1 1 1 1 1 1 1 
1 1 1 1 1 1 1 1 1 
1 1 1 1 1 1 1 1 1 
1 1 1 1 1 1 1 1 1 
1 1 1 1 1 1 1 1 1 
1 1 1 1 1 1 1 1 1 
1 1 1 1 1 1 1 1 1 
1 1 1 1 1 1 1 1 1 
1 1 1 1 1 1 1 1 1 
1 1 1 1 1 1 1 1 1 
1 1 1 1 1 1 1 1 1 
1 1 1 1 1 1 1 1 1 
1 1 1 1 1 1 1 1 1 
1 1 1 1 1 1 1 1 1 
1 1 1 1 1 1 1 1 1 
1 1 1 1 1 1 1 1 1 
1 1 1 1 1 1 1 1 1 
1 1 1 1 1 1 1 1 1 
1 1 1 1 1 1 1 1 1 
1 1 1 1 1 1 1 1 1 
1 1 1 1 1 1 1 1 1 
1 1 1 1 1 1 1 1 1 
1 1 1 1 1 1 1 1 1 
1 1 1 1 1 1 1 1 1 
1 1 1 1 1 1 1 1 1 
1 1 1 1 1 1 1 1 1 
1 1 1 1 1 1 1 1 1 
1 1 1 1 1 1 1 1 1 
1 1 1 1 1 1 1 1 1 
1 1 1 1 1 1 1 1 1 
1 1 1 1 1 1 1 1 1 
1 1 1 1 1 1 1 1 1 
1 1 1 1 1 1 1 1 1 
1 1 1 1 1 1 1 1 1 
1 1 1 1 1 1 1 1 1 
1 1 1 1 1 1 1 1 1 
1 1 1 1 1 1 1 1 1 
1 1 1 1 1 1 1 1 1 
1 1 1 1 1 1 1 1 1 
1 1 1 1 1 1 1 1 1 
1 1 1 1 1 1 1 1 1 
1 1 1 1 1 1 1 1 1 
1 1 1 1 1 1 1 1 1 
1 1 1 1 1 1 1 1 1 
1 1 1 1 1 1 1 1 1 
1 1 1 1 1 1 1 1 1 
1 1 1 1 1 1 1 1 1 
1 1 1 1 1 1 1 1 1 
1 1 1 1 1 1 1 1 1 
1 1 1 1 1 1 1 1 1 
1 1 1 1 1 1 1 1 1 
1 1 1 1 1 1 1 1 1 
1 1 1 1 1 1 1 1 1 
1 1 1 1 1 1 1 1 1 
1 1 1 1 1 1 1 1 1 
1 1 1 1 1 1 1 1 1 
1 1 1 1 1 1 1 1 1 
1 1 1 1 1 1 1 1 1 
1 1 1 1 1 1 1 1 1 
1 1 1 1 1 1 1 1 1 
1 1 1 1 1 1 1 1 1 
1 1 1 1 1 1 1 1 1 
1 1 1 1 1 1 1 1 1 
1 1 1 1 1 1 1 1 1 
1 1 1 1 1 1 1 1 1 
1 1 1 1 1 1 1 1 1 
1 1 1 1 1 1 1 1 1 
1 1 1 1 1 1 1 1 1 
1 1 1 1 1 1 1 1 1 
1 1 1 1 1 1 1 1 1 
1 1 1 1 1 1 1 1 1 
1 1 1 1 1 1 1 1 1 
1 1 1 1 1 1 1 1 1 
1 1 1 1 1 1 1 1 1 
1 1 1 1 1 1 1 1 1 
1 1 1 1 1 1 1 1 1 
1 1 1 1 1 1 1 1 1 
1 1 1 1 1 1 1 1 1 
1 1 1 1 1 1 1 1 1 
1 1 1 1 1 1 1 1 1 
1 1 1 1 1 1 1 1 1 
1 1 1 1 1 1 1 1 1 
1 1 1 1 1 1 1 1 1 
1 1 1 1 1 1 1 1 1 
1 1 1 1 1 1 1 1 1 
1 1 1 1 1 1 1 1 1 
1 1 1 1 1 1 1 1 1 
1 1 1 1 1 1 1 1 1 
1 1 1 1 1 1 1 1 1 
1 1 1 1 1 1 1 1 1 
1 1 1 1 1 
FIELD FieldData 1
GlobalElementID 1 869 int
1 2 3 4 5 6 7 8 9 
10 11 12 13 14 15 16 17 18 
19 20 21 22 23 24 25 26 27 
28 29 30 31 32 33 34 35 36 
37 38 39 40 41 42 43 44 45 
46 47 48 49 50 51 52 53 54 
55 56 57 58 59 60 61 62 63 
64 65 66 67 68 69 70 71 72 
73 74 75 76 77 78 79 80 81 
82 83 84 85 86 87 88 89 90 
91 92 93 94 95 96 97 98 99 
100 101 102 103 104 105 106 107 108 
109 110 111 112 113 114 115 116 117 
118 119 120 121 122 123 124 125 126 
127 128 129 130 131 132 133 134 135 
136 137 138 139 140 141 142 143 144 
145 146 147 148 149 150 151 152 153 
154 155 156 157 158 159 160 161 162 
163 164 165 166 167 168 169 170 171 
172 173 174 175 176 177 178 179 180 
181 182 183 184 185 186 187 188 189 
190 191 192 193 194 195 196 197 198 
199 200 201 202 203 204 205 206 207 
208 209 210 211 212 213 214 215 216 
217 218 219 220 221 222 223 224 225 
226 227 228 229 230 231 232 233 234 
235 236 237 238 239 240 241 242 243 
244 245 246 247 248 249 250 251 252 
253 254 255 256 257 258 259 260 261 
262 263 264 265 266 267 268 269 270 
271 272 273 274 275 276 277 278 279 
280 281 282 283 284 285 286 287 288 
289 290 291 292 293 294 295 296 297 
298 299 300 301 302 303 304 305 306 
307 308 309 310 311 312 313 314 315 
316 317 318 319 320 321 322 323 324 
325 326 327 328 329 330 331 332 333 
334 335 336 337 338 339 340 341 342 
343 344 345 346 347 348 349 350 351 
352 353 354 355 356 357 358 359 360 
361 362 363 364 365 366 367 368 369 
370 371 372 373 374 375 376 377 378 
379 380 381 382 383 384 385 386 387 
388 389 390 391 392 393 394 395 396 
397 398 399 400 401 402 403 404 405 
406 407 408 409 410 411 412 413 414 
415 416 417 418 419 420 421 422 423 
424 425 426 427 428 429 430 431 432 
433 434 435 436 437 438 439 440 441 
442 443 444 445 446 447 448 449 450 
451 452 453 454 455 456 457 458 459 
460 461 462 463 464 465 466 467 468 
469 470 471 472 473 474 475 476 477 
478 479 480 481 482 483 484 485 486 
487 488 489 490 491 492 493 494 495 
496 497 498 499 500 501 502 503 504 
505 506 507 508 509 510 511 512 513 
514 515 516 517 518 519 520 521 522 
523 524 525 526 527 528 529 530 531 
532 533 534 535 536 537 538 539 540 
541 542 543 544 545 546 547 548 549 
550 551 552 553 554 555 556 557 558 
559 560 561 562 563 564 565 566 567 
568 569 570 571 572 573 574 575 576 
577 578 579 580 581 582 583 584 585 
586 587 588 589 590 591 592 593 594 
595 596 597 598 599 600 601 602 603 
604 605 606 607 608 609 610 611 612 
613 614 615 616 617 618 619 620 621 
622 623 624 625 626 627 628 629 630 
631 632 633 634 635 636 637 638 639 
640 641 642 643 644 645 646 647 648 
649 650 651 652 653 654 655 656 657 
658 659 660 661 662 663 664 665 666 
667 668 669 670 671 672 673 674 675 
676 677 678 679 680 681 682 683 684 
685 686 687 688 689 690 691 692 693 
694 695 696 697 698 699 700 701 702 
703 704 705 706 707 708 709 710 711 
712 713 714 715 716 717 718 719 720 
721 722 723 724 725 726 727 728 729 
730 731 732 733 734 735 736 737 738 
739 740 741 742 743 744 745 746 747 
748 749 750 751 752 753 754 755 756 
757 758 759 760 761 762 763 764 765 
766 767 768 769 770 771 772 773 774 
775 776 777 778 779 780 781 782 783 
784 785 786 787 788 789 790 791 792 
793 794 795 796 797 798 799 800 801 
802 803 804 805 806 807 808 809 810 
811 812 813 814 815 816 817 818 819 
820 821 822 823 824 825 826 827 828 
829 830 831 832 833 834 835 836 837 
838 839 840 841 842 843 844 845 846 
847 848 849 850 851 852 853 854 855 
856 857 858 859 860 861 862 863 864 
865 866 867 868 869 
POINT_DATA 228
FIELD FieldData 1
GlobalNodeID 1 228 int
1 2 3 4 5 6 7 8 9 
10 11 12 13 14 15 16 17 18 
19 20 21 22 23 24 25 26 27 
28 29 30 31 32 33 34 35 36 
37 38 39 40 41 42 43 44 45 
46 47 48 49 50 51 52 53 54 
55 56 57 58 59 60 61 62 63 
64 65 66 67 68 69 70 71 72 
73 74 75 76 77 78 79 80 81 
82 83 84 85 86 87 88 89 90 
91 92 93 94 95 96 97 98 99 
100 101 102 103 104 105 106 107 108 
109 110 111 112 113 114 115 116 117 
118 119 120 121 122 123 124 125 126 
127 128 129 130 131 132 133 134 135 
136 137 138 139 140 141 142 143 144 
145 146 147 148 149 150 151 152 153 
154 155 156 157 158 159 160 161 162 
163 164 165 166 167 168 169 170 171 
172 173 174 175 176 177 178 179 180 
181 182 183 184 185 186 187 188 189 
190 191 192 193 194 195 196 197 198 
199 200 201 202 203 204 205 206 207 
208 209 210 211 212 213 214 215 216 
217 218 219 220 221 222 223 224 225 
226 227 228 
