# vtk DataFile Version 4.2
vtk output
ASCII
DATASET POLYDATA
POINTS 131 float
0.0784201 0.620867 3.23131 0.0390824 0.303322 4.28151 0.0301327 0.293406 4.31375 
0.0226509 0.277837 4.36814 0.0141713 0.258626 4.42806 0.0146991 0.237718 4.52332 
0.0123971 0.233364 4.55668 0.0090969 0.227846 4.5746 0.0042302 0.220645 4.60155 
-0.00392641 0.205528 4.67088 -0.00408122 0.204871 4.67324 -0.00681233 0.196805 4.70679 
-0.00796351 0.192427 4.7241 -0.00161955 0.173475 4.82896 -0.00426203 0.162693 4.89567 
-0.00517007 0.158926 4.91665 -0.00982215 0.145504 5.00319 -0.00947021 0.140142 5.02442 
-0.0093842 0.134128 5.04868 -0.00812786 0.125145 5.08561 -0.00743843 0.117804 5.11829 
-0.00897775 0.111361 5.16033 -0.00965287 0.0934521 5.30597 -0.00692564 0.0847139 5.35245 
-0.00656894 0.0834844 5.35822 -0.00885264 0.0729697 5.403 -0.00942679 0.0632086 5.45487 
-0.0129222 0.0430386 5.57851 -0.0132594 0.0421078 5.58315 -0.016022 0.0284199 5.63217 
-0.0164352 0.0232753 5.65559 -0.015982 0.0141268 5.70964 -0.0150967 0.00288871 5.77112 
-0.0122566 -0.010825 5.89229 -0.0125813 -0.0110562 5.90025 -0.0127931 -0.0115034 5.90187 
-0.0159609 -0.0195226 5.94141 -0.0118262 -0.0349291 6.04382 -0.0130756 -0.054374 6.14954 
-0.0132992 -0.0569368 6.16 -0.0157241 -0.0623521 6.18828 -0.0193358 -0.0742559 6.26141 
-0.0182783 -0.0771343 6.28079 -0.0156589 -0.0978362 6.42333 -0.023523 -0.116901 6.52212 
-0.0279258 -0.123355 6.57923 -0.0284333 -0.124639 6.58342 -0.0253335 -0.140837 6.68291 
-0.0252688 -0.144743 6.70935 -0.0284912 -0.152309 6.7723 -0.036361 -0.16012 6.88545 
-0.0329251 -0.169447 6.96664 -0.0333052 -0.172095 6.97688 -0.045678 -0.196817 7.14411 
-0.0488088 -0.201308 7.17033 -0.052677 -0.226881 7.27435 -0.058315 -0.235169 7.32548 
-0.0685807 -0.246599 7.44362 -0.0734267 -0.254713 7.51114 -0.0756569 -0.258833 7.52738 
-0.0773538 -0.269846 7.56831 -0.0823949 -0.280125 7.62261 -0.0843912 -0.28459 7.64961 
-0.0974166 -0.307622 7.78826 -0.100615 -0.310984 7.80975 -0.101995 -0.315134 7.83645 
-0.104496 -0.318463 7.86148 -0.109607 -0.331702 7.92001 -0.119292 -0.351157 8.0117 
-0.121728 -0.356347 8.0422 -0.122972 -0.357853 8.0492 -0.132822 -0.378122 8.14244 
-0.134783 -0.381903 8.15921 -0.144412 -0.40169 8.24883 -0.14485 -0.40283 8.2539 
-0.1649 -0.42228 8.36645 -0.173215 -0.440655 8.46697 -0.17455 -0.44213 8.47614 
-0.196727 -0.455808 8.60388 -0.198955 -0.457198 8.6209 -0.207885 -0.461523 8.67729 
-0.218864 -0.466891 8.73385 -0.256322 -0.483063 8.88062 -0.265284 -0.492995 8.94001 
-0.265299 -0.49301 8.94008 -0.277902 -0.504313 9.00348 -0.30833 -0.5245 9.12905 
-0.3162 -0.528909 9.1551 -0.333949 -0.541803 9.22181 -0.335426 -0.54326 9.22731 
-0.348136 -0.553712 9.27357 -0.354432 -0.56055 9.29994 -0.392673 -0.589604 9.43709 
-0.395931 -0.591941 9.44659 -0.414458 -0.607114 9.50737 -0.444642 -0.627537 9.6099 
-0.486232 -0.660757 9.74704 -0.496406 -0.667362 9.77335 -0.49973 -0.669775 9.78209 
-0.512163 -0.676334 9.81588 -0.540602 -0.692646 9.91531 -0.545205 -0.695718 9.93309 
-0.605533 -0.725703 10.0889 -0.61107 -0.726716 10.1031 -0.639848 -0.732837 10.198 
-0.641123 -0.733556 10.2013 -0.650585 -0.739439 10.2236 -0.696773 -0.773676 10.3352 
-0.698553 -0.774901 10.3397 -0.742684 -0.808184 10.4808 -0.796475 -0.848751 10.6074 
-0.854054 -0.885508 10.771 -0.927765 -0.920339 10.9291 -0.937294 -0.925814 10.9511 
-0.994723 -0.971458 11.1135 -1.06591 -1.00705 11.2543 -1.08825 -1.02788 11.3134 
-1.10217 -1.04039 11.3458 -1.16036 -1.05988 11.4799 -1.23194 -1.07691 11.5994 
-1.23294 -1.07768 11.602 -1.23294 -1.07768 11.602 -1.31119 -1.12266 11.7755 
-1.34652 -1.14613 11.8392 -1.34739 -1.14624 11.8407 -1.39668 -1.16181 11.9192 
-1.42103 -1.17248 11.9679 -1.42747 -1.17394 11.9817 -1.44975 -1.179 12.021 
-1.451 -1.17877 12.0232 -2.01882 -1.51964 12.9449 
METADATA
INFORMATION 0

LINES 1 132
131 0 1 2 3 4 5 6 7 8 9 10 11 12 13 14 15 16 17 18 19 20 21 22 23 24 25 26 27 28 29 30 31 32 33 34 35 36 37 38 39 40 41 42 43 44 45 46 47 48 49 50 51 52 53 54 55 56 57 58 59 60 61 62 63 64 65 66 67 68 69 70 71 72 73 74 75 76 77 78 79 80 81 82 83 84 85 86 87 88 89 90 91 92 93 94 95 96 97 98 99 100 101 102 103 104 105 106 107 108 109 110 111 112 113 114 115 116 117 118 119 120 121 122 123 124 125 126 127 128 129 130 

CELL_DATA 1
FIELD FieldData 4
CenterlineIds 1 1 int
0 
TractIds 1 1 int
0 
Blanking 1 1 int
0 
GroupIds 1 1 int
0 
POINT_DATA 131
FIELD FieldData 1
MaximumInscribedSphereRadius 1 131 double
1.0978621171 1.0978621171 1.1018708649 1.1030475239 1.1065294993 1.1138645841 1.1153894248 1.1163664222 1.1178844891 
1.1215661338 1.1216581366 1.1225357597 1.1229913733 1.1276475296 1.1299012803 1.130370901 1.1373736094 1.1380669059 
1.1387885071 1.1398164936 1.1413179631 1.1411858516 1.1506459542 1.1524734427 1.15272872 1.1524058685 1.1530344434 
1.1609714616 1.1614518891 1.165183985 1.1652522324 1.1643715453 1.1658522089 1.1745149939 1.1747336225 1.1747932434 
1.1760777833 1.1756257449 1.1816425861 1.1825487533 1.1835128853 1.1864199082 1.1861666951 1.1891583577 1.192553184 
1.1952030264 1.1954338147 1.1954567145 1.1960307765 1.1959668732 1.19887838 1.1981997056 1.1984446692 1.1991052261 
1.2007392895 1.2036873086 1.203325042 1.2026273858 1.2061535167 1.2071437 1.2068981212 1.2054284119 1.2038595039 
1.2059236767 1.206639778 1.2058893851 1.2043585726 1.2017368115 1.2018706615 1.2022553991 1.2020794749 1.1967770452 
1.1963815495 1.1977449407 1.197915682 1.1926856703 1.1879784495 1.1873294617 1.1786806684 1.1780355822 1.1766812262 
1.1744509921 1.1757906254 1.1724380565 1.1724315228 1.1676870961 1.1638500061 1.1638042521 1.1626229566 1.1623517286 
1.1612792919 1.1602767499 1.1564353398 1.1562644473 1.1548666291 1.1533679078 1.1496261749 1.1491011521 1.1489814461 
1.1491219158 1.1482299303 1.1485805441 1.1466346689 1.1472038271 1.1480927016 1.1478653868 1.1470770558 1.1425108309 
1.1425398076 1.143295876 1.1375775111 1.1405181387 1.1353347226 1.1347578487 1.1367013933 1.1339561931 1.1334730883 
1.1330529396 1.1344768348 1.1370300767 1.136840839 1.136840079 1.1333637181 1.133497048 1.1334880937 1.1368631362 
1.1379752237 1.1378480227 1.1350938869 1.1349207459 1.1349207459 
