# vtk DataFile Version 4.2
vtk output
ASCII
DATASET POLYDATA
POINTS 5 float
-1.40559 -1.44519 13.0014 -1.40872 -1.49048 13.0148 -1.44228 -1.57313 13.1183 
-0.965863 -1.37273 13.3916 -1.0114 -1.55748 13.4874 
METADATA
INFORMATION 0

LINES 1 6
5 4 2 1 0 3 

POINT_DATA 5
FIELD FieldData 1
MaximumInscribedSphereRadius 1 5 double
0.59238707869 0.58894399906 0.56755355244 0.59238707869 0.56755355244 
