# vtk DataFile Version 4.2
vtk output
ASCII
DATASET POLYDATA
POINTS 132 float
-1.68357 -1.3005 12.1627 -1.13118 -0.983048 11.2437 -1.11821 -0.969575 11.2176 
-1.11035 -0.960458 11.2006 -1.10051 -0.951706 11.182 -1.09723 -0.949364 11.1755 
-1.04523 -0.91583 11.0779 -1.03556 -0.910152 11.0617 -1.0056 -0.895767 11.0081 
-1.00536 -0.895651 11.0076 -1.00349 -0.894694 11.0038 -1.00246 -0.894254 11.0017 
-0.984746 -0.88699 10.9682 -0.97074 -0.879691 10.9432 -0.970454 -0.879542 10.9427 
-0.917094 -0.842082 10.8493 -0.89524 -0.827405 10.8107 -0.848653 -0.795414 10.7192 
-0.847109 -0.794638 10.7165 -0.806873 -0.772427 10.6337 -0.802622 -0.769465 10.6258 
-0.78482 -0.757965 10.5881 -0.747968 -0.740563 10.5083 -0.74055 -0.736688 10.4888 
-0.713532 -0.723057 10.4213 -0.709132 -0.719945 10.4089 -0.704371 -0.716741 10.3975 
-0.666877 -0.689871 10.2962 -0.663868 -0.687249 10.2873 -0.658219 -0.68191 10.2691 
-0.622304 -0.655573 10.1606 -0.618903 -0.65295 10.1482 -0.598555 -0.639522 10.086 
-0.578437 -0.629209 10.0212 -0.555296 -0.611165 9.93915 -0.554197 -0.609981 9.93559 
-0.532899 -0.585421 9.85396 -0.531344 -0.584563 9.84889 -0.509617 -0.573684 9.77222 
-0.503478 -0.571848 9.7515 -0.493052 -0.568799 9.71318 -0.492117 -0.56808 9.70862 
-0.492109 -0.568074 9.70858 -0.464738 -0.553912 9.60053 -0.459009 -0.550148 9.57932 
-0.446744 -0.539047 9.52746 -0.426987 -0.529826 9.43892 -0.426813 -0.529679 9.43813 
-0.419497 -0.525018 9.41052 -0.406284 -0.51128 9.34853 -0.387849 -0.502632 9.26824 
-0.379569 -0.498715 9.22444 -0.36761 -0.491824 9.17334 -0.350259 -0.473054 9.08548 
-0.334091 -0.463223 9.00611 -0.323454 -0.455641 8.94709 -0.320471 -0.454302 8.9323 
-0.316769 -0.452794 8.91546 -0.305964 -0.447856 8.86085 -0.298552 -0.441534 8.81504 
-0.283049 -0.429383 8.73922 -0.279826 -0.42748 8.72246 -0.269518 -0.422149 8.65187 
-0.259891 -0.414864 8.60349 -0.257427 -0.413805 8.59189 -0.250767 -0.410272 8.55514 
-0.243846 -0.407315 8.51852 -0.240863 -0.405586 8.49364 -0.223113 -0.389254 8.38638 
-0.218109 -0.38706 8.36206 -0.217392 -0.386815 8.35887 -0.206049 -0.381071 8.29244 
-0.203156 -0.378648 8.27463 -0.196528 -0.370678 8.21944 -0.188198 -0.366224 8.17311 
-0.177307 -0.361511 8.11613 -0.16663 -0.350603 8.03277 -0.165573 -0.350152 8.0259 
-0.15156 -0.337441 7.93469 -0.150628 -0.336776 7.92665 -0.147362 -0.333735 7.89864 
-0.140593 -0.326252 7.85735 -0.127362 -0.314923 7.76016 -0.114553 -0.303048 7.67745 
-0.106678 -0.294754 7.61519 -0.104465 -0.290834 7.59106 -0.0902169 -0.277627 7.48746 
-0.0886234 -0.276266 7.47807 -0.0829571 -0.268172 7.42788 -0.0826314 -0.267742 7.42535 
-0.0721616 -0.255448 7.32972 -0.0635337 -0.243425 7.24721 -0.0575853 -0.233006 7.19558 
-0.0503121 -0.224272 7.1236 -0.0397144 -0.203991 7.02019 -0.0358743 -0.195353 6.9681 
-0.0301128 -0.185928 6.90268 -0.0271541 -0.175574 6.85576 -0.0263384 -0.172625 6.84098 
-0.0188021 -0.15481 6.75099 -0.017096 -0.144393 6.69716 -0.0157855 -0.14129 6.67922 
-0.0129377 -0.118116 6.56306 -0.0112273 -0.107674 6.51413 -0.0112697 -0.105015 6.50054 
-0.0111071 -0.100242 6.47801 -0.0109904 -0.0984889 6.47065 -0.0121832 -0.0831147 6.41106 
-0.0111246 -0.0742481 6.37594 -0.0135162 -0.054426 6.30093 -0.0135495 -0.042159 6.25269 
-0.0147413 -0.035188 6.22078 -0.0148191 -0.0323329 6.20745 -0.0148104 -0.0283146 6.19092 
-0.0151158 -0.0246363 6.17793 -0.015117 -0.0246215 6.17788 -0.0159793 -0.00773983 6.10328 
-0.0161256 -0.00329972 6.08595 -0.0156982 -0.000610271 6.075 -0.0170891 0.0227807 5.97989 
-0.0169202 0.0236491 5.97499 -0.0162522 0.0396498 5.90057 -0.0166018 0.0522491 5.83574 
-0.0149193 0.076326 5.72838 -0.0148443 0.0765828 5.72722 -0.0143166 0.0802565 5.71131 
-0.0146479 0.0850272 5.68921 -0.0154613 0.100391 5.63514 -0.0154324 0.104078 5.61796 
-0.011611 0.12505 5.524 -0.0117588 0.130896 5.50371 0.00495313 0.368247 4.34364 

METADATA
INFORMATION 0

LINES 1 133
132 0 1 2 3 4 5 6 7 8 9 10 11 12 13 14 15 16 17 18 19 20 21 22 23 24 25 26 27 28 29 30 31 32 33 34 35 36 37 38 39 40 41 42 43 44 45 46 47 48 49 50 51 52 53 54 55 56 57 58 59 60 61 62 63 64 65 66 67 68 69 70 71 72 73 74 75 76 77 78 79 80 81 82 83 84 85 86 87 88 89 90 91 92 93 94 95 96 97 98 99 100 101 102 103 104 105 106 107 108 109 110 111 112 113 114 115 116 117 118 119 120 121 122 123 124 125 126 127 128 129 130 131 

CELL_DATA 1
FIELD FieldData 4
CenterlineIds 1 1 int
0 
TractIds 1 1 int
0 
Blanking 1 1 int
0 
GroupIds 1 1 int
0 
POINT_DATA 132
FIELD FieldData 1
MaximumInscribedSphereRadius 1 132 double
1.1181968561 1.1181968561 1.1194777543 1.1197937379 1.1193505389 1.119072576 1.1193130143 1.1195927222 1.1205656994 
1.120573546 1.120546308 1.1205368218 1.1201966805 1.1198231567 1.1198155338 1.1230548725 1.1240731199 1.1292582625 
1.1293298381 1.1338655578 1.13431626 1.1355697156 1.1369699835 1.1374301394 1.1397232835 1.1404053315 1.1405531871 
1.1414227544 1.141844632 1.1424197453 1.1452709712 1.1455347027 1.1456474757 1.1468780423 1.1491087368 1.1491999218 
1.1518762023 1.1520735755 1.1529690535 1.1537203752 1.1555826829 1.1556273081 1.155627668 1.1578156135 1.1589168964 
1.1601685769 1.1630954555 1.1631207575 1.1642582968 1.16641061 1.16865246 1.1703803129 1.1723439786 1.1758446107 
1.1799123033 1.1813500078 1.1816227531 1.182162492 1.184532368 1.1864925168 1.1904344003 1.1915308253 1.194138438 
1.1960800104 1.1963770637 1.1984304179 1.2003491105 1.200972675 1.2052251697 1.2064883002 1.2066199181 1.2086271597 
1.2091530513 1.2112487218 1.2125830329 1.2153227571 1.2174825645 1.2176229648 1.2206649028 1.2209182185 1.2218705736 
1.2229626094 1.225971158 1.2281806225 1.230256539 1.2306347912 1.2326810599 1.2330403323 1.2333758512 1.2334064549 
1.2347514089 1.2358735834 1.2364744555 1.2369089848 1.23712123 1.2367656232 1.2372299517 1.2366080569 1.2365545248 
1.2348415121 1.2348859897 1.2346566088 1.2319333336 1.2302004399 1.229704959 1.2288331535 1.2285049023 1.2260438154 
1.22427067 1.2195866628 1.2176479271 1.2162762007 1.2156014522 1.214726877 1.2137357692 1.2137317888 1.2102740923 
1.2094808382 1.2089376059 1.2036662641 1.2033876394 1.2009555678 1.1959241862 1.1929324514 1.1929040202 1.1920749187 
1.1902486155 1.1877864392 1.1870155162 1.1846944107 1.1842140899 1.1842140899 
