# vtk DataFile Version 4.2
vtk output
ASCII
DATASET POLYDATA
POINTS 131 float
-1.96281 -1.63106 12.9233 -1.44863 -1.17735 12.0185 -1.43275 -1.1675 11.988 
-1.41939 -1.1602 11.9564 -1.41401 -1.15905 11.9465 -1.38831 -1.15072 11.9029 
-1.33737 -1.12823 11.8194 -1.31456 -1.11746 11.7789 -1.23294 -1.07768 11.602 
-1.23194 -1.07692 11.5994 -1.23194 -1.07691 11.5994 -1.17565 -1.04009 11.4951 
-1.14369 -1.01983 11.4138 -1.07807 -0.985353 11.2721 -1.07038 -0.982011 11.2529 
-1.0041 -0.954549 11.1239 -0.992188 -0.948453 11.0893 -0.940508 -0.924553 10.9571 
-0.928076 -0.919253 10.9291 -0.926924 -0.91865 10.9268 -0.85568 -0.882106 10.7728 
-0.854191 -0.880673 10.7674 -0.80085 -0.843021 10.613 -0.760935 -0.818216 10.5225 
-0.742684 -0.808184 10.4808 -0.698871 -0.773465 10.3394 -0.649904 -0.746478 10.2259 
-0.634935 -0.73959 10.1879 -0.61107 -0.726716 10.1031 -0.605533 -0.725703 10.0889 
-0.546196 -0.686755 9.93286 -0.519191 -0.669663 9.83443 -0.492282 -0.65741 9.7614 
-0.489763 -0.65689 9.75508 -0.482383 -0.65461 9.73403 -0.444642 -0.627537 9.6099 
-0.418675 -0.609178 9.51982 -0.412956 -0.604591 9.50294 -0.393929 -0.586764 9.4414 
-0.354432 -0.56055 9.29994 -0.335553 -0.543364 9.22777 -0.334186 -0.542032 9.22282 
-0.308244 -0.52475 9.12868 -0.276505 -0.500804 8.99782 -0.265286 -0.492986 8.94002 
-0.256322 -0.483063 8.88062 -0.218762 -0.466597 8.73503 -0.197482 -0.458622 8.60832 
-0.17455 -0.44213 8.47614 -0.173396 -0.440874 8.46971 -0.164827 -0.42167 8.36696 
-0.144814 -0.402379 8.25441 -0.144539 -0.40154 8.25019 -0.133919 -0.381602 8.15056 
-0.122974 -0.358751 8.04756 -0.121873 -0.357238 8.04169 -0.11811 -0.346777 8.00433 
-0.110338 -0.328791 7.93527 -0.101045 -0.301697 7.83315 -0.100657 -0.301672 7.82855 
-0.096091 -0.297435 7.80361 -0.0840223 -0.287119 7.63373 -0.0816352 -0.280964 7.6041 
-0.0784242 -0.273762 7.57234 -0.0770939 -0.263819 7.53084 -0.0730948 -0.256464 7.50162 
-0.0685807 -0.246599 7.44362 -0.058315 -0.235169 7.32548 -0.052677 -0.226881 7.27435 
-0.0507349 -0.206754 7.16453 -0.0466935 -0.200647 7.13322 -0.0373497 -0.181762 7.00987 
-0.0352452 -0.178162 6.98304 -0.0352253 -0.172948 6.95108 -0.036361 -0.16012 6.88545 
-0.0285127 -0.152398 6.77211 -0.0277634 -0.150956 6.74757 -0.0258088 -0.146261 6.7125 
-0.0257223 -0.141325 6.68122 -0.02826 -0.124844 6.58599 -0.0279477 -0.123205 6.58118 
-0.023523 -0.116901 6.52212 -0.0190168 -0.10731 6.43343 -0.0190465 -0.107042 6.43119 
-0.0200934 -0.101112 6.39481 -0.0212332 -0.0806502 6.26918 -0.017008 -0.0667729 6.1731 
-0.0165925 -0.0658055 6.16902 -0.0145014 -0.0530708 6.12761 -0.0135062 -0.0463221 6.09644 
-0.0137465 -0.0373497 6.03646 -0.0169789 -0.0225981 5.94503 -0.0149341 -0.0185154 5.89959 
-0.015785 -0.0153745 5.87672 -0.0157017 -0.00696766 5.83006 -0.0150967 0.00288871 5.77112 
-0.0159784 0.0140818 5.70989 -0.015982 0.0141268 5.70964 -0.0164352 0.0232753 5.65559 
-0.016022 0.0284199 5.63217 -0.0139844 0.041711 5.57361 -0.0141189 0.0422626 5.56557 
-0.013221 0.0516439 5.50207 -0.010602 0.0618679 5.45061 -0.00955638 0.0775731 5.36675 
-0.00966452 0.0778593 5.36514 -0.00966495 0.0778605 5.36514 -0.00983847 0.0782473 5.36313 
-0.0142296 0.0858515 5.31925 -0.0143063 0.0913462 5.26127 -0.0113337 0.10662 5.16945 
-0.00883738 0.115311 5.12196 -0.0104036 0.124858 5.07724 -0.0116573 0.136489 5.03095 
-0.0110806 0.141212 5.01426 -0.00993819 0.147732 4.97359 -0.00842133 0.155821 4.89936 
-0.00841524 0.155853 4.89906 -0.00615071 0.165984 4.84018 -0.00603489 0.177449 4.79381 
-0.00603265 0.177547 4.79339 -0.00796351 0.192427 4.7241 -0.00670507 0.19694 4.70867 
-0.00382305 0.205329 4.67543 -3.91639e-05 0.219401 4.54498 -0.00180153 0.225271 4.51578 
-0.00290434 0.230439 4.49081 -0.00215627 0.255684 4.37643 -9.95531e-05 0.262082 4.35744 
0.0078103 0.275532 4.2857 0.0923749 0.504066 3.2103 
METADATA
INFORMATION 0

LINES 1 132
131 0 1 2 3 4 5 6 7 8 9 10 11 12 13 14 15 16 17 18 19 20 21 22 23 24 25 26 27 28 29 30 31 32 33 34 35 36 37 38 39 40 41 42 43 44 45 46 47 48 49 50 51 52 53 54 55 56 57 58 59 60 61 62 63 64 65 66 67 68 69 70 71 72 73 74 75 76 77 78 79 80 81 82 83 84 85 86 87 88 89 90 91 92 93 94 95 96 97 98 99 100 101 102 103 104 105 106 107 108 109 110 111 112 113 114 115 116 117 118 119 120 121 122 123 124 125 126 127 128 129 130 

CELL_DATA 1
FIELD FieldData 4
CenterlineIds 1 1 int
0 
TractIds 1 1 int
0 
Blanking 1 1 int
0 
GroupIds 1 1 int
0 
POINT_DATA 131
FIELD FieldData 1
MaximumInscribedSphereRadius 1 131 double
1.1353256818 1.1353256818 1.1379004287 1.1382519174 1.1379693287 1.1359930839 1.1334240885 1.1335809951 1.136840079 
1.1370293167 1.1370300767 1.1365705883 1.1342043748 1.1354958122 1.135497385 1.1375972831 1.1363842579 1.1348245745 
1.1353751868 1.1354765639 1.1406719436 1.1405458406 1.1377456036 1.1416773365 1.143295876 1.1426816629 1.1449851596 
1.1471036283 1.1472038271 1.1466346689 1.1497726601 1.1501424854 1.150049902 1.1500661913 1.1503713307 1.1533679078 
1.1547748314 1.1550963315 1.1570768298 1.1602767499 1.1623410576 1.1625890403 1.1638075339 1.1684699808 1.1724400752 
1.1757906254 1.1747686667 1.1782327796 1.1873294617 1.1879232752 1.1926743891 1.1978678383 1.1977900596 1.196370431 
1.2022129607 1.2023417308 1.2014871806 1.2009453923 1.2054515371 1.2058129196 1.2053215794 1.2050489867 1.206706091 
1.2073528219 1.207627788 1.2059958406 1.2026273858 1.203325042 1.2036873086 1.2019705761 1.2001159573 1.1993199565 
1.1994305302 1.199277352 1.19887838 1.1959953716 1.1963893007 1.1963071849 1.1955659399 1.1953915346 1.1952126638 
1.192553184 1.1908992424 1.1908077167 1.1894540981 1.1875073574 1.1839277342 1.1837649538 1.1800087391 1.1783782653 
1.1760300891 1.1762749642 1.1747216403 1.1730621489 1.1686918995 1.1658522089 1.164377468 1.1643715453 1.1652522324 
1.165183985 1.1603531145 1.1595279691 1.154791802 1.1531319664 1.1532479437 1.1532078524 1.1532076914 1.1531496803 
1.1518788318 1.1457780796 1.1410273422 1.1412022982 1.1391421952 1.1381667738 1.1377310987 1.1340785178 1.1293507242 
1.1293317371 1.127967897 1.1250883176 1.1250777048 1.1229913733 1.1227500522 1.1219773261 1.1161575381 1.1132414493 
1.1112199154 1.1069110346 1.1069102648 1.1026632234 1.1026632234 
