# vtk DataFile Version 4.2
vtk output
ASCII
DATASET UNSTRUCTURED_GRID
POINTS 2092 float
-0.850058 -1.49502 8.46993 -0.523968 -1.65399 8.35241 -0.648501 -1.64985 8.7132 
-0.262076 -1.72231 8.62421 0.0859981 -1.68689 8.54264 -0.0605997 -1.72564 8.87282 
-1.14939 -1.2556 8.58551 -1.02152 -1.27942 8.21394 0.206433 -1.65423 8.82618 
0.756219 -1.03958 8.99038 0.578002 -1.31072 9.0826 0.634121 -1.28491 8.76984 
-0.0166088 0.429779 10.5019 -0.275686 0.55123 10.5751 -0.121519 0.369449 10.7814 
0.761523 -0.134911 9.41908 0.845878 -0.438854 9.18348 0.854204 -0.114756 9.08406 
-1.2816 -0.956762 8.34218 -0.143986 0.867609 9.1522 0.16104 0.772633 9.17498 
0.101849 0.837333 8.9563 -1.19441 0.40228 8.75228 -1.01104 0.556313 8.50761 
-1.24547 0.268898 8.5182 -1.4055 -0.297371 8.43214 -1.37776 -0.591911 8.2639 
-1.41347 -0.63837 8.55303 -0.722428 -1.50741 8.10757 -1.25729 -1.46284 13.3954 
-1.50455 -1.22598 13.3699 -1.49656 -1.57162 13.2108 -0.181597 -1.71126 8.28281 
0.410301 -1.52926 8.64238 0.415774 -1.50416 8.96888 0.82573 -1.00562 8.65226 
0.888523 -0.703209 8.88018 0.944219 -0.310985 8.78919 0.74503 0.174854 9.12629 
0.897213 0.0630876 8.745 -2.94953 -1.12012 12.6162 -2.97054 -1.37303 12.4849 
-2.81262 -1.35364 12.5819 -1.32958 0.190275 8.78299 -1.35448 0.026173 8.51021 
-0.108887 0.898693 8.77089 0.933903 0.883205 5.83121 0.792105 1.04213 5.62992 
0.616608 1.15321 5.84749 -0.444773 0.887818 8.90814 -0.101535 0.579786 10.2789 
-0.395872 0.670685 10.3007 -0.456991 0.497486 10.9031 -0.150434 -1.76632 9.25564 
0.0640562 -1.73554 9.53384 -0.273964 -1.81099 9.529 -1.00618 -1.91962 13.3189 
-1.01958 -1.68097 13.4244 -1.25723 -1.8011 13.2353 0.325599 1.2766 5.61006 
0.321297 1.28077 5.94561 -1.29683 0.0746994 8.18646 -1.35845 -0.297773 8.04901 
-0.84103 1.14632 6.28216 -0.838381 1.13393 6.64667 -0.537772 1.32289 6.44406 
-1.06852 0.914577 6.45011 -1.05045 0.825126 6.88717 -2.43778 -0.834922 13.0358 
-2.64362 -1.11822 12.7873 -2.31977 -1.0835 12.9838 -1.02846 0.60229 8.8894 
-0.203374 0.121763 -0.0142311 -0.429957 0.299137 -0.309649 0.0264941 0.295413 -0.335043 
-2.10711 -0.922282 13.1784 -2.05262 -1.25212 13.0527 -1.80577 -1.41845 13.1113 
-1.84693 -1.13995 13.2201 0.59176 2.04217 -3.27347 0.600318 1.99578 -3.63899 
0.658766 2.32713 -3.52512 0.808103 2.92715 -4.5159 0.804699 2.49572 -4.42482 
0.870667 2.64998 -4.74293 -0.787318 2.731 -4.97347 -0.832128 2.89305 -4.6502 
-0.714836 3.0844 -4.89543 -0.0374631 1.29698 5.85781 -0.34914 1.187 5.58365 
-0.42818 1.23026 5.8902 -2.0228 -1.84781 12.7874 -1.6638 -2.07416 12.88 
-1.75093 -1.71139 13.0032 -1.51229 -1.87171 13.0601 -0.756428 0.794465 9.09686 
-0.745661 0.777603 8.71918 -0.577602 3.27488 -5.10521 -0.691678 2.99229 -5.2047 
-2.76047 -0.720275 12.9106 -2.87515 -0.902856 12.7604 0.34532 3.83059 -5.52618 
0.266326 3.77119 -5.1553 0.601211 3.71005 -5.29053 0.941541 3.79529 -7.78537 
0.739253 3.89071 -7.57869 1.03415 3.75467 -7.38735 1.07916 3.64095 -8.01924 
0.864006 3.81224 -8.06134 -1.18457 -1.14941 13.5841 -1.32363 -0.918223 13.6161 
-0.0020206 2.61982 -9.19754 -0.00770402 2.36486 -9.35431 0.25745 2.40831 -9.18802 
-0.151717 2.21594 -9.51109 -0.19841 2.5826 -9.46431 0.498838 0.390167 -10.3328 
0.550277 0.356056 -10.7043 0.660964 0.687044 -10.4934 -1.33709 -1.52944 -11.4483 
-1.62494 -1.71907 -11.5529 -1.37856 -1.60883 -11.871 -2.29535 -1.93964 12.5924 
-2.02158 -2.23224 12.6062 -2.80409 -1.0113 -12.8368 -2.61551 -1.17033 -13.07 
-2.96019 -1.20309 -13.0591 -1.71019 -0.878061 13.4201 -0.589803 1.11013 5.68024 
-2.30491 -0.63359 13.205 -2.61337 -0.56848 13.0642 0.373427 -1.5692 8.31908 
-2.60605 -2.32756 12.236 -2.41271 -2.54458 12.2409 -2.4165 -2.20475 12.3995 
0.108727 -1.67731 8.22451 0.646806 -1.31278 8.41217 -1.06469 -2.37442 13.0712 
-1.01929 -2.15262 13.2014 -1.30717 -2.12498 13.0543 0.702761 0.399245 8.83294 
0.230844 0.828528 8.70404 0.427084 0.648508 8.97956 0.53351 0.659522 8.6166 
-2.00714 -0.606642 13.3834 -1.37874 -2.43116 12.8697 -1.07763 -1.41308 13.5188 
0.381246 0.0667387 -10.946 0.183024 -0.0950652 -11.2555 0.303039 0.279805 -11.2881 
-2.1748 -2.72271 12.2889 -2.1848 -2.45667 12.4092 -1.89937 -2.59908 12.5006 
0.677204 3.7588 -5.55708 -1.15083 -2.57523 12.9283 0.849966 3.57306 -5.42833 
0.92774 3.64988 -5.76321 -2.95807 -1.61583 12.3769 -2.61308 -1.49314 12.6269 
-1.50324 -0.695668 13.6215 -1.92536 -2.83439 12.3748 -2.03874 -1.54048 12.9239 
-2.33176 -1.65416 12.7072 -2.30722 -1.36206 12.859 -2.4164 -0.440551 13.2343 
-0.907756 -1.56828 13.2441 -0.770022 -1.80534 12.9351 -0.732004 -1.38715 12.9588 
-1.15924 -0.34155 5.40465 -1.0477 -0.426141 5.00415 -0.91699 -0.696559 5.27002 
-1.13975 -1.07089 7.99998 -2.18091 -0.38378 13.3921 -1.95009 -0.402116 13.5119 
0.533195 0.446203 9.25005 0.625371 0.414399 9.04674 -1.45837 -2.89008 12.6082 
-1.27389 -2.75167 12.7763 -1.5746 -2.63846 12.6626 1.00002 -0.60722 8.40829 
1.07443 -0.271026 8.1633 1.01002 -0.202403 8.48604 0.799067 0.393397 8.50591 
-0.426341 0.886688 8.51553 -0.7637 0.735241 8.40952 -0.960077 0.565361 8.15583 
-1.14238 0.364137 8.22854 -1.29404 -0.746095 7.92524 -2.8008 -1.49909 12.1232 
-2.87668 -1.85493 12.3091 -0.234646 -1.09734 5.02078 -0.384039 -1.13815 5.39796 
-0.62849 -0.91687 5.07594 0.559941 1.97503 -2.94542 0.50893 1.71038 -2.81157 
0.480295 1.70821 -3.08611 0.787457 -0.793575 9.25527 0.862413 -1.01897 8.31125 
-2.41205 -2.36237 12.0576 -2.16091 -2.51998 11.9825 0.160698 0.165913 10.6247 
0.171195 0.379255 10.2677 0.982911 0.132679 8.2807 0.657274 0.641331 8.2617 
-6.00899 5.99211 -20.4346 -5.6734 6.08404 -20.5142 -5.92567 5.72831 -20.5626 
-6.22736 5.68994 -20.4743 -6.20287 5.36326 -20.606 0.341788 0.840805 8.34848 
-0.0194171 0.916692 8.42306 0.144356 -1.6845 9.12793 -0.920131 -1.28336 7.86116 
-5.85213 5.45439 -20.6911 0.584562 0.95054 -0.650052 0.539603 1.0067 -1.00751 
0.631864 1.25707 -0.763803 0.270385 1.47627 -3.22258 0.411009 1.66956 -3.46903 
-5.56747 5.64668 -20.7154 0.538822 -1.44476 8.04795 0.984896 -0.828313 8.0365 
0.868237 0.412669 8.18167 -2.58503 -1.83862 12.479 -5.35023 5.43139 -20.8707 
-5.60606 5.23963 -20.856 -5.25947 5.72692 -20.79 -5.37919 5.98071 -20.6534 
-0.290885 0.936609 8.12344 -0.631144 0.811566 8.13649 -1.33283 -0.422301 7.7331 
0.584024 1.54669 -0.568019 0.642876 1.25013 -0.383225 -1.36413 -0.9682 8.7597 
-0.395402 -1.67103 8.0366 -0.0420301 -1.69425 7.98718 0.272962 -1.62339 8.02474 
-0.522216 -1.76716 9.34409 -0.403489 -1.7374 8.97239 0.797578 -1.15751 8.05213 
1.07002 -0.543805 8.03916 0.572669 1.9736 -3.97319 0.449614 1.78542 -3.77292 
0.115012 3.6084 -4.5093 -0.147577 3.60518 -4.7293 -0.207855 3.51692 -4.36863 
-2.44213 -1.49961 -13.226 -2.7809 -1.3864 -13.3094 -1.68726 -2.89096 12.4805 
-1.70052 -0.518166 13.5958 -2.70123 -1.85421 12.0583 -2.76529 -2.08645 12.2615 
-1.4322 -0.13212 8.76882 -2.5716 -2.12571 12.049 -1.72811 -1.62675 -11.2345 
-1.9795 -1.85692 -11.5532 -5.23309 5.7671 -20.3799 -1.30649 -0.0208064 7.7332 
-1.26474 -0.682821 7.50204 -1.08244 -1.05032 7.65605 -6.16944 5.43204 -20.2554 
-0.0262878 -1.21005 5.3391 0.110821 -1.12359 4.99897 -0.606327 -1.50977 7.71892 
-1.91332 -2.73896 12.1536 -1.26189 0.379849 9.10067 0.705734 -1.28913 7.698 
-0.379143 0.0728517 0.250585 -0.577213 0.244403 0.0460719 -1.58395 -2.78616 12.2017 
-0.0374865 0.0175428 0.374286 -0.389144 0.0187701 0.567608 0.453388 -0.763638 10.3683 
0.422971 -0.427756 10.4742 0.334694 -0.70307 10.7125 -5.6131 5.94093 -20.2057 
-1.21083 -2.70073 12.4373 0.767175 0.610188 7.97144 0.486205 0.830557 8.03371 
-0.460773 0.871287 9.25106 -0.968426 -2.35749 12.8428 -1.06068 -2.54828 12.6263 
-6.0365 5.75726 -20.1405 0.0901464 0.964262 8.00823 -5.39551 5.21134 -20.6884 
-0.893773 0.656902 7.79863 -5.10576 5.57138 -20.2128 -5.18208 5.41149 -20.5127 
-5.3013 5.06317 -20.3952 -5.63227 5.07547 -20.6045 -5.97533 5.07864 -20.3767 
-1.13891 0.360072 7.88683 -0.940173 -1.1764 13.2405 -1.11885 -0.870416 13.324 
-5.26463 5.73483 -20.0381 -0.826416 -1.30667 7.58746 -1.40616 -0.550011 13.3732 
-5.63292 4.89493 -20.2725 -0.763642 -1.65862 9.06609 -6.07491 5.15655 -20.0015 
-6.04888 5.50554 -19.9065 -5.8337 5.76705 -19.9117 -1.74832 -0.28425 13.2733 
-2.13366 -0.279611 13.1611 -2.41013 -0.392291 12.9241 -5.53195 5.75888 -19.8068 
-5.08672 5.26426 -20.21 -2.58193 -0.549907 12.6983 -5.86902 4.90682 -20.0674 
-2.75393 -0.801309 12.5493 -0.400068 -1.57421 7.44131 -0.245097 -1.67046 7.72828 
-5.03127 5.47022 -19.9515 -2.82875 -1.10031 12.3404 -0.101242 -1.63813 7.38487 
0.110303 -1.65196 7.69092 -6.00319 5.24497 -19.6538 -5.19743 5.5935 -19.6705 
-5.80934 5.55947 -19.5642 0.426206 -1.52992 7.70073 -5.13795 5.02815 -20.1197 
-5.34616 4.81862 -20.0977 -5.61651 4.74934 -19.9707 -5.90948 4.87764 -19.7568 
-5.9195 5.02413 -19.4048 -5.87113 5.30836 -19.3735 -5.50884 5.62766 -19.5071 
-5.30722 5.52199 -19.2961 -4.96355 5.34786 -19.714 -4.98379 5.17571 -19.9193 
-5.09002 4.87164 -19.8755 -5.64854 5.47317 -19.2657 -4.96075 5.36594 -19.3922 
-4.89586 5.0329 -19.6407 -5.35572 4.62528 -19.7614 -5.66136 4.66142 -19.6885 
-5.8004 4.72424 -19.4378 -5.48444 5.39529 -19.0116 -5.03561 4.70756 -19.6153 
-0.912891 -2.10648 13.0181 -5.52984 4.53558 -19.4712 -5.7733 5.18547 -19.0937 
1.13158 -0.327386 7.76296 0.325522 0.626327 9.32808 -4.76739 5.01385 -19.3092 
-4.86721 4.81212 -19.4433 -4.96477 4.56042 -19.3449 -5.22383 4.48357 -19.4522 
-4.77429 4.7259 -19.2071 -5.82229 4.83372 -19.1924 -5.73014 4.83942 -18.9199 
-5.58793 5.13734 -18.7554 -4.83908 5.23203 -19.0352 -5.38258 4.4199 -19.2534 
-5.66324 4.57554 -19.1336 -5.28277 5.2882 -18.6892 -5.13244 5.3915 -19.0216 
-4.65009 4.90721 -18.9764 -4.96327 5.27669 -18.7562 -5.06848 4.25529 -18.8874 
-5.15276 4.38608 -19.1971 -4.87322 4.44803 -19.0876 -5.40372 4.36831 -18.9941 
-5.5762 4.54622 -18.7612 -4.70507 5.11226 -18.6859 -4.69048 4.61523 -18.9704 
-5.58172 4.82883 -18.5931 -4.70406 4.3641 -18.75 -5.40048 5.08591 -18.468 
-5.0606 5.20297 -18.4132 -4.56306 4.7399 -18.7421 -0.543523 0.909657 7.78171 
-5.35666 4.31135 -18.6646 0.625801 0.217555 9.42521 -5.46134 4.53126 -18.444 
[...]
CELL_DATA 6823
SCALARS ModelRegionID int
LOOKUP_TABLE default
1 1 1 1 1 1 1 1 1 
1 1 1 1 1 1 1 1 1 
1 1 1 1 1 1 1 1 1 
1 1 1 1 1 1 1 1 1 
1 1 1 1 1 1 1 1 1 
1 1 1 1 1 1 1 1 1 
1 1 1 1 1 1 1 1 1 
1 1 1 1 1 1 1 1 1 
1 1 1 1 1 1 1 1 1 
1 1 1 1 1 1 1 1 1 
1 1 1 1 1 1 1 1 1 
1 1 1 1 1 1 1 1 1 
1 1 1 1 1 1 1 1 1 
1 1 1 1 1 1 1 1 1 
1 1 1 1 1 1 1 1 1 
1 1 1 1 1 1 1 1 1 
1 1 1 1 1 1 1 1 1 
1 1 1 1 1 1 1 1 1 
1 1 1 1 1 1 1 1 1 
1 1 1 1 1 1 1 1 1 
1 1 1 1 1 1 1 1 1 
1 1 1 1 1 1 1 1 1 
1 1 1 1 1 1 1 1 1 
1 1 1 1 1 1 1 1 1 
1 1 1 1 1 1 1 1 1 
1 1 1 1 1 1 1 1 1 
1 1 1 1 1 1 1 1 1 
1 1 1 1 1 1 1 1 1 
1 1 1 1 1 1 1 1 1 
1 1 1 1 1 1 1 1 1 
1 1 1 1 1 1 1 1 1 
1 1 1 1 1 1 1 1 1 
1 1 1 1 1 1 1 1 1 
1 1 1 1 1 1 1 1 1 
1 1 1 1 1 1 1 1 1 
1 1 1 1 1 1 1 1 1 
1 1 1 1 1 1 1 1 1 
1 1 1 1 1 1 1 1 1 
1 1 1 1 1 1 1 1 1 
1 1 1 1 1 1 1 1 1 
1 1 1 1 1 1 1 1 1 
1 1 1 1 1 1 1 1 1 
1 1 1 1 1 1 1 1 1 
1 1 1 1 1 1 1 1 1 
1 1 1 1 1 1 1 1 1 
1 1 1 1 1 1 1 1 1 
1 1 1 1 1 1 1 1 1 
1 1 1 1 1 1 1 1 1 
1 1 1 1 1 1 1 1 1 
1 1 1 1 1 1 1 1 1 
1 1 1 1 1 1 1 1 1 
1 1 1 1 1 1 1 1 1 
1 1 1 1 1 1 1 1 1 
1 1 1 1 1 1 1 1 1 
1 1 1 1 1 1 1 1 1 
1 1 1 1 1 1 1 1 1 
1 1 1 1 1 1 1 1 1 
1 1 1 1 1 1 1 1 1 
1 1 1 1 1 1 1 1 1 
1 1 1 1 1 1 1 1 1 
1 1 1 1 1 1 1 1 1 
1 1 1 1 1 1 1 1 1 
1 1 1 1 1 1 1 1 1 
1 1 1 1 1 1 1 1 1 
1 1 1 1 1 1 1 1 1 
1 1 1 1 1 1 1 1 1 
1 1 1 1 1 1 1 1 1 
1 1 1 1 1 1 1 1 1 
1 1 1 1 1 1 1 1 1 
1 1 1 1 1 1 1 1 1 
1 1 1 1 1 1 1 1 1 
1 1 1 1 1 1 1 1 1 
1 1 1 1 1 1 1 1 1 
1 1 1 1 1 1 1 1 1 
1 1 1 1 1 1 1 1 1 
1 1 1 1 1 1 1 1 1 
1 1 1 1 1 1 1 1 1 
1 1 1 1 1 1 1 1 1 
1 1 1 1 1 1 1 1 1 
1 1 1 1 1 1 1 1 1 
1 1 1 1 1 1 1 1 1 
1 1 1 1 1 1 1 1 1 
1 1 1 1 1 1 1 1 1 
1 1 1 1 1 1 1 1 1 
1 1 1 1 1 1 1 1 1 
1 1 1 1 1 1 1 1 1 
1 1 1 1 1 1 1 1 1 
1 1 1 1 1 1 1 1 1 
1 1 1 1 1 1 1 1 1 
1 1 1 1 1 1 1 1 1 
1 1 1 1 1 1 1 1 1 
1 1 1 1 1 1 1 1 1 
1 1 1 1 1 1 1 1 1 
1 1 1 1 1 1 1 1 1 
1 1 1 1 1 1 1 1 1 
1 1 1 1 1 1 1 1 1 
1 1 1 1 1 1 1 1 1 
1 1 1 1 1 1 1 1 1 
1 1 1 1 1 1 1 1 1 
1 1 1 1 1 1 1 1 1 
1 1 1 1 1 1 1 1 1 
1 1 1 1 1 1 1 1 1 
1 1 1 1 1 1 1 1 1 
1 1 1 1 1 1 1 1 1 
1 1 1 1 1 1 1 1 1 
1 1 1 1 1 1 1 1 1 
1 1 1 1 1 1 1 1 1 
1 1 1 1 1 1 1 1 1 
1 1 1 1 1 1 1 1 1 
1 1 1 1 1 1 1 1 1 
1 1 1 1 1 1 1 1 1 
1 1 1 1 1 1 1 1 1 
1 1 1 1 1 1 1 1 1 
1 1 1 1 1 1 1 1 1 
1 1 1 1 1 1 1 1 1 
1 1 1 1 1 1 1 1 1 
1 1 1 1 1 1 1 1 1 
1 1 1 1 1 1 1 1 1 
1 1 1 1 1 1 1 1 1 
1 1 1 1 1 1 1 1 1 
1 1 1 1 1 1 1 1 1 
1 1 1 1 1 1 1 1 1 
1 1 1 1 1 1 1 1 1 
1 1 1 1 1 1 1 1 1 
1 1 1 1 1 1 1 1 1 
1 1 1 1 1 1 1 1 1 
1 1 1 1 1 1 1 1 1 
1 1 1 1 1 1 1 1 1 
1 1 1 1 1 1 1 1 1 
1 1 1 1 1 1 1 1 1 
1 1 1 1 1 1 1 1 1 
1 1 1 1 1 1 1 1 1 
1 1 1 1 1 1 1 1 1 
1 1 1 1 1 1 1 1 1 
1 1 1 1 1 1 1 1 1 
1 1 1 1 1 1 1 1 1 
1 1 1 1 1 1 1 1 1 
1 1 1 1 1 1 1 1 1 
1 1 1 1 1 1 1 1 1 
1 1 1 1 1 1 1 1 1 
1 1 1 1 1 1 1 1 1 
1 1 1 1 1 1 1 1 1 
1 1 1 1 1 1 1 1 1 
1 1 1 1 1 1 1 1 1 
1 1 1 1 1 1 1 1 1 
1 1 1 1 1 1 1 1 1 
1 1 1 1 1 1 1 1 1 
1 1 1 1 1 1 1 1 1 
1 1 1 1 1 1 1 1 1 
1 1 1 1 1 1 1 1 1 
1 1 1 1 1 1 1 1 1 
1 1 1 1 1 1 1 1 1 
1 1 1 1 1 1 1 1 1 
1 1 1 1 1 1 1 1 1 
1 1 1 1 1 1 1 1 1 
1 1 1 1 1 1 1 1 1 
1 1 1 1 1 1 1 1 1 
1 1 1 1 1 1 1 1 1 
1 1 1 1 1 1 1 1 1 
1 1 1 1 1 1 1 1 1 
1 1 1 1 1 1 1 1 1 
1 1 1 1 1 1 1 1 1 
1 1 1 1 1 1 1 1 1 
1 1 1 1 1 1 1 1 1 
1 1 1 1 1 1 1 1 1 
1 1 1 1 1 1 1 1 1 
1 1 1 1 1 1 1 1 1 
1 1 1 1 1 1 1 1 1 
1 1 1 1 1 1 1 1 1 
1 1 1 1 1 1 1 1 1 
1 1 1 1 1 1 1 1 1 
1 1 1 1 1 1 1 1 1 
1 1 1 1 1 1 1 1 1 
1 1 1 1 1 1 1 1 1 
1 1 1 1 1 1 1 1 1 
1 1 1 1 1 1 1 1 1 
1 1 1 1 1 1 1 1 1 
1 1 1 1 1 1 1 1 1 
1 1 1 1 1 1 1 1 1 
1 1 1 1 1 1 1 1 1 
1 1 1 1 1 1 1 1 1 
1 1 1 1 1 1 1 1 1 
1 1 1 1 1 1 1 1 1 
1 1 1 1 1 1 1 1 1 
1 1 1 1 1 1 1 1 1 
1 1 1 1 1 1 1 1 1 
1 1 1 1 1 1 1 1 1 
1 1 1 1 1 1 1 1 1 
1 1 1 1 1 1 1 1 1 
1 1 1 1 1 1 1 1 1 
1 1 1 1 1 1 1 1 1 
1 1 1 1 1 1 1 1 1 
1 1 1 1 1 1 1 1 1 
1 1 1 1 1 1 1 1 1 
1 1 1 1 1 1 1 1 1 
1 1 1 1 1 1 1 1 1 
1 1 1 1 1 1 1 1 1 
1 1 1 1 1 1 1 1 1 
1 1 1 1 1 1 1 1 1 
1 1 1 1 1 1 1 1 1 
1 1 1 1 1 1 1 1 1 
1 1 1 1 1 1 1 1 1 
1 1 1 1 1 1 1 1 1 
1 1 1 1 1 1 1 1 1 
1 1 1 1 1 1 1 1 1 
1 1 1 1 1 1 1 1 1 
1 1 1 1 1 1 1 1 1 
1 1 1 1 1 1 1 1 1 
1 1 1 1 1 1 1 1 1 
1 1 1 1 1 1 1 1 1 
1 1 1 1 1 1 1 1 1 
1 1 1 1 1 1 1 1 1 
1 1 1 1 1 1 1 1 1 
1 1 1 1 1 1 1 1 1 
1 1 1 1 1 1 1 1 1 
1 1 1 1 1 1 1 1 1 
1 1 1 1 1 1 1 1 1 
1 1 1 1 1 1 1 1 1 
1 1 1 1 1 1 1 1 1 
1 1 1 1 1 1 1 1 1 
1 1 1 1 1 1 1 1 1 
1 1 1 1 1 1 1 1 1 
1 1 1 1 1 1 1 1 1 
1 1 1 1 1 1 1 1 1 
1 1 1 1 1 1 1 1 1 
1 1 1 1 1 1 1 1 1 
1 1 1 1 1 1 1 1 1 
1 1 1 1 1 1 1 1 1 
1 1 1 1 1 1 1 1 1 
1 1 1 1 1 1 1 1 1 
1 1 1 1 1 1 1 1 1 
1 1 1 1 1 1 1 1 1 
1 1 1 1 1 1 1 1 1 
1 1 1 1 1 1 1 1 1 
1 1 1 1 1 1 1 1 1 
1 1 1 1 1 1 1 1 1 
1 1 1 1 1 1 1 1 1 
1 1 1 1 1 1 1 1 1 
1 1 1 1 1 1 1 1 1 
1 1 1 1 1 1 1 1 1 
1 1 1 1 1 1 1 1 1 
1 1 1 1 1 1 1 1 1 
1 1 1 1 1 1 1 1 1 
1 1 1 1 1 1 1 1 1 
1 1 1 1 1 1 1 1 1 
1 1 1 1 1 1 1 1 1 
1 1 1 1 1 1 1 1 1 
1 1 1 1 1 1 1 1 1 
1 1 1 1 1 1 1 1 1 
1 1 1 1 1 1 1 1 1 
1 1 1 1 1 1 1 1 1 
1 1 1 1 1 1 1 1 1 
1 1 1 1 1 1 1 1 1 
1 1 1 1 1 1 1 1 1 
1 1 1 1 1 1 1 1 1 
1 1 1 1 1 1 1 1 1 
1 1 1 1 1 1 1 1 1 
1 1 1 1 1 1 1 1 1 
1 1 1 1 1 1 1 1 1 
1 1 1 1 1 1 1 1 1 
1 1 1 1 1 1 1 1 1 
1 1 1 1 1 1 1 1 1 
1 1 1 1 1 1 1 1 1 
1 1 1 1 1 1 1 1 1 
1 1 1 1 1 1 1 1 1 
1 1 1 1 1 1 1 1 1 
1 1 1 1 1 1 1 1 1 
1 1 1 1 1 1 1 1 1 
1 1 1 1 1 1 1 1 1 
1 1 1 1 1 1 1 1 1 
1 1 1 1 1 1 1 1 1 
1 1 1 1 1 1 1 1 1 
1 1 1 1 1 1 1 1 1 
1 1 1 1 1 1 1 1 1 
1 1 1 1 1 1 1 1 1 
1 1 1 1 1 1 1 1 1 
1 1 1 1 1 1 1 1 1 
1 1 1 1 1 1 1 1 1 
1 1 1 1 1 1 1 1 1 
1 1 1 1 1 1 1 1 1 
1 1 1 1 1 1 1 1 1 
1 1 1 1 1 1 1 1 1 
1 1 1 1 1 1 1 1 1 
1 1 1 1 1 1 1 1 1 
1 1 1 1 1 1 1 1 1 
1 1 1 1 1 1 1 1 1 
1 1 1 1 1 1 1 1 1 
1 1 1 1 1 1 1 1 1 
1 1 1 1 1 1 1 1 1 
1 1 1 1 1 1 1 1 1 
1 1 1 1 1 1 1 1 1 
1 1 1 1 1 1 1 1 1 
1 1 1 1 1 1 1 1 1 
1 1 1 1 1 1 1 1 1 
1 1 1 1 1 1 1 1 1 
1 1 1 1 1 1 1 1 1 
1 1 1 1 1 1 1 1 1 
1 1 1 1 1 1 1 1 1 
1 1 1 1 1 1 1 1 1 
1 1 1 1 1 1 1 1 1 
1 1 1 1 1 1 1 1 1 
1 1 1 1 1 1 1 1 1 
1 1 1 1 1 1 1 1 1 
1 1 1 1 1 1 1 1 1 
1 1 1 1 1 1 1 1 1 
1 1 1 1 1 1 1 1 1 
1 1 1 1 1 1 1 1 1 
1 1 1 1 1 1 1 1 1 
1 1 1 1 1 1 1 1 1 
1 1 1 1 1 1 1 1 1 
1 1 1 1 1 1 1 1 1 
1 1 1 1 1 1 1 1 1 
1 1 1 1 1 1 1 1 1 
1 1 1 1 1 1 1 1 1 
1 1 1 1 1 1 1 1 1 
1 1 1 1 1 1 1 1 1 
1 1 1 1 1 1 1 1 1 
1 1 1 1 1 1 1 1 1 
1 1 1 1 1 1 1 1 1 
1 1 1 1 1 1 1 1 1 
1 1 1 1 1 1 1 1 1 
1 1 1 1 1 1 1 1 1 
1 1 1 1 1 1 1 1 1 
1 1 1 1 1 1 1 1 1 
1 1 1 1 1 1 1 1 1 
1 1 1 1 1 1 1 1 1 
1 1 1 1 1 1 1 1 1 
1 1 1 1 1 1 1 1 1 
1 1 1 1 1 1 1 1 1 
1 1 1 1 1 1 1 1 1 
1 1 1 1 1 1 1 1 1 
1 1 1 1 1 1 1 1 1 
1 1 1 1 1 1 1 1 1 
1 1 1 1 1 1 1 1 1 
1 1 1 1 1 1 1 1 1 
1 1 1 1 1 1 1 1 1 
1 1 1 1 1 1 1 1 1 
1 1 1 1 1 1 1 1 1 
1 1 1 1 1 1 1 1 1 
1 1 1 1 1 1 1 1 1 
1 1 1 1 1 1 1 1 1 
1 1 1 1 1 1 1 1 1 
1 1 1 1 1 1 1 1 1 
1 1 1 1 1 1 1 1 1 
1 1 1 1 1 1 1 1 1 
1 1 1 1 1 1 1 1 1 
1 1 1 1 1 1 1 1 1 
1 1 1 1 1 1 1 1 1 
1 1 1 1 1 1 1 1 1 
1 1 1 1 1 1 1 1 1 
1 1 1 1 1 1 1 1 1 
1 1 1 1 1 1 1 1 1 
1 1 1 1 1 1 1 1 1 
1 1 1 1 1 1 1 1 1 
1 1 1 1 1 1 1 1 1 
1 1 1 1 1 1 1 1 1 
1 1 1 1 1 1 1 1 1 
1 1 1 1 1 1 1 1 1 
1 1 1 1 1 1 1 1 1 
1 1 1 1 1 1 1 1 1 
1 1 1 1 1 1 1 1 1 
1 1 1 1 1 1 1 1 1 
1 1 1 1 1 1 1 1 1 
1 1 1 1 1 1 1 1 1 
1 1 1 1 1 1 1 1 1 
1 1 1 1 1 1 1 1 1 
1 1 1 1 1 1 1 1 1 
1 1 1 1 1 1 1 1 1 
1 1 1 1 1 1 1 1 1 
1 1 1 1 1 1 1 1 1 
1 1 1 1 1 1 1 1 1 
1 1 1 1 1 1 1 1 1 
1 1 1 1 1 1 1 1 1 
1 1 1 1 1 1 1 1 1 
1 1 1 1 1 1 1 1 1 
1 1 1 1 1 1 1 1 1 
1 1 1 1 1 1 1 1 1 
1 1 1 1 1 1 1 1 1 
1 1 1 1 1 1 1 1 1 
1 1 1 1 1 1 1 1 1 
1 1 1 1 1 1 1 1 1 
1 1 1 1 1 1 1 1 1 
1 1 1 1 1 1 1 1 1 
1 1 1 1 1 1 1 1 1 
1 1 1 1 1 1 1 1 1 
1 1 1 1 1 1 1 1 1 
1 1 1 1 1 1 1 1 1 
1 1 1 1 1 1 1 1 1 
1 1 1 1 1 1 1 1 1 
1 1 1 1 1 1 1 1 1 
1 1 1 1 1 1 1 1 1 
1 1 1 1 1 1 1 1 1 
1 1 1 1 1 1 1 1 1 
1 1 1 1 1 1 1 1 1 
1 1 1 1 1 1 1 1 1 
1 1 1 1 1 1 1 1 1 
1 1 1 1 1 1 1 1 1 
1 1 1 1 1 1 1 1 1 
1 1 1 1 1 1 1 1 1 
1 1 1 1 1 1 1 1 1 
1 1 1 1 1 1 1 1 1 
1 1 1 1 1 1 1 1 1 
1 1 1 1 1 1 1 1 1 
1 1 1 1 1 1 1 1 1 
1 1 1 1 1 1 1 1 1 
1 1 1 1 1 1 1 1 1 
1 1 1 1 1 1 1 1 1 
1 1 1 1 1 1 1 1 1 
1 1 1 1 1 1 1 1 1 
1 1 1 1 1 1 1 1 1 
1 1 1 1 1 1 1 1 1 
1 1 1 1 1 1 1 1 1 
1 1 1 1 1 1 1 1 1 
1 1 1 1 1 1 1 1 1 
1 1 1 1 1 1 1 1 1 
1 1 1 1 1 1 1 1 1 
1 1 1 1 1 1 1 1 1 
1 1 1 1 1 1 1 1 1 
1 1 1 1 1 1 1 1 1 
1 1 1 1 1 1 1 1 1 
1 1 1 1 1 1 1 1 1 
1 1 1 1 1 1 1 1 1 
1 1 1 1 1 1 1 1 1 
1 1 1 1 1 1 1 1 1 
1 1 1 1 1 1 1 1 1 
1 1 1 1 1 1 1 1 1 
1 1 1 1 1 1 1 1 1 
1 1 1 1 1 1 1 1 1 
1 1 1 1 1 1 1 1 1 
1 1 1 1 1 1 1 1 1 
1 1 1 1 1 1 1 1 1 
1 1 1 1 1 1 1 1 1 
1 1 1 1 1 1 1 1 1 
1 1 1 1 1 1 1 1 1 
1 1 1 1 1 1 1 1 1 
1 1 1 1 1 1 1 1 1 
1 1 1 1 1 1 1 1 1 
1 1 1 1 1 1 1 1 1 
1 1 1 1 1 1 1 1 1 
1 1 1 1 1 1 1 1 1 
1 1 1 1 1 1 1 1 1 
1 1 1 1 1 1 1 1 1 
1 1 1 1 1 1 1 1 1 
1 1 1 1 1 1 1 1 1 
1 1 1 1 1 1 1 1 1 
1 1 1 1 1 1 1 1 1 
1 1 1 1 1 1 1 1 1 
1 1 1 1 1 1 1 1 1 
1 1 1 1 1 1 1 1 1 
1 1 1 1 1 1 1 1 1 
1 1 1 1 1 1 1 1 1 
1 1 1 1 1 1 1 1 1 
1 1 1 1 1 1 1 1 1 
1 1 1 1 1 1 1 1 1 
1 1 1 1 1 1 1 1 1 
1 1 1 1 1 1 1 1 1 
1 1 1 1 1 1 1 1 1 
1 1 1 1 1 1 1 1 1 
1 1 1 1 1 1 1 1 1 
1 1 1 1 1 1 1 1 1 
1 1 1 1 1 1 1 1 1 
1 1 1 1 1 1 1 1 1 
1 1 1 1 1 1 1 1 1 
1 1 1 1 1 1 1 1 1 
1 1 1 1 1 1 1 1 1 
1 1 1 1 1 1 1 1 1 
1 1 1 1 1 1 1 1 1 
1 1 1 1 1 1 1 1 1 
1 1 1 1 1 1 1 1 1 
1 1 1 1 1 1 1 1 1 
1 1 1 1 1 1 1 1 1 
1 1 1 1 1 1 1 1 1 
1 1 1 1 1 1 1 1 1 
1 1 1 1 1 1 1 1 1 
1 1 1 1 1 1 1 1 1 
1 1 1 1 1 1 1 1 1 
1 1 1 1 1 1 1 1 1 
1 1 1 1 1 1 1 1 1 
1 1 1 1 1 1 1 1 1 
1 1 1 1 1 1 1 1 1 
1 1 1 1 1 1 1 1 1 
1 1 1 1 1 1 1 1 1 
1 1 1 1 1 1 1 1 1 
1 1 1 1 1 1 1 1 1 
1 1 1 1 1 1 1 1 1 
1 1 1 1 1 1 1 1 1 
1 1 1 1 1 1 1 1 1 
1 1 1 1 1 1 1 1 1 
1 1 1 1 1 1 1 1 1 
1 1 1 1 1 1 1 1 1 
1 1 1 1 1 1 1 1 1 
1 1 1 1 1 1 1 1 1 
1 1 1 1 1 1 1 1 1 
1 1 1 1 1 1 1 1 1 
1 1 1 1 1 1 1 1 1 
1 1 1 1 1 1 1 1 1 
1 1 1 1 1 1 1 1 1 
1 1 1 1 1 1 1 1 1 
1 1 1 1 1 1 1 1 1 
1 1 1 1 1 1 1 1 1 
1 1 1 1 1 1 1 1 1 
1 1 1 1 1 1 1 1 1 
1 1 1 1 1 1 1 1 1 
1 1 1 1 1 1 1 1 1 
1 1 1 1 1 1 1 1 1 
1 1 1 1 1 1 1 1 1 
1 1 1 1 1 1 1 1 1 
1 1 1 1 1 1 1 1 1 
1 1 1 1 1 1 1 1 1 
1 1 1 1 1 1 1 1 1 
1 1 1 1 1 1 1 1 1 
1 1 1 1 1 1 1 1 1 
1 1 1 1 1 1 1 1 1 
1 1 1 1 1 1 1 1 1 
1 1 1 1 1 1 1 1 1 
1 1 1 1 1 1 1 1 1 
1 1 1 1 1 1 1 1 1 
1 1 1 1 1 1 1 1 1 
1 1 1 1 1 1 1 1 1 
1 1 1 1 1 1 1 1 1 
1 1 1 1 1 1 1 1 1 
1 1 1 1 1 1 1 1 1 
1 1 1 1 1 1 1 1 1 
1 1 1 1 1 1 1 1 1 
1 1 1 1 1 1 1 1 1 
1 1 1 1 1 1 1 1 1 
1 1 1 1 1 1 1 1 1 
1 1 1 1 1 1 1 1 1 
1 1 1 1 1 1 1 1 1 
1 1 1 1 1 1 1 1 1 
1 1 1 1 1 1 1 1 1 
1 1 1 1 1 1 1 1 1 
1 1 1 1 1 1 1 1 1 
1 1 1 1 1 1 1 1 1 
1 1 1 1 1 1 1 1 1 
1 1 1 1 1 1 1 1 1 
1 1 1 1 1 1 1 1 1 
1 1 1 1 1 1 1 1 1 
1 1 1 1 1 1 1 1 1 
1 1 1 1 1 1 1 1 1 
1 1 1 1 1 1 1 1 1 
1 1 1 1 1 1 1 1 1 
1 1 1 1 1 1 1 1 1 
1 1 1 1 1 1 1 1 1 
1 1 1 1 1 1 1 1 1 
1 1 1 1 1 1 1 1 1 
1 1 1 1 1 1 1 1 1 
1 1 1 1 1 1 1 1 1 
1 1 1 1 1 1 1 1 1 
1 1 1 1 1 1 1 1 1 
1 1 1 1 1 1 1 1 1 
1 1 1 1 1 1 1 1 1 
1 1 1 1 1 1 1 1 1 
1 1 1 1 1 1 1 1 1 
1 1 1 1 1 1 1 1 1 
1 1 1 1 1 1 1 1 1 
1 1 1 1 1 1 1 1 1 
1 1 1 1 1 1 1 1 1 
1 1 1 1 1 1 1 1 1 
1 1 1 1 1 1 1 1 1 
1 1 1 1 1 1 1 1 1 
1 1 1 1 1 1 1 1 1 
1 1 1 1 1 1 1 1 1 
1 1 1 1 1 1 1 1 1 
1 1 1 1 1 1 1 1 1 
1 1 1 1 1 1 1 1 1 
1 1 1 1 1 1 1 1 1 
1 1 1 1 1 1 1 1 1 
1 1 1 1 1 1 1 1 1 
1 1 1 1 1 1 1 1 1 
1 1 1 1 1 1 1 1 1 
1 1 1 1 1 1 1 1 1 
1 1 1 1 1 1 1 1 1 
1 1 1 1 1 1 1 1 1 
1 1 1 1 1 1 1 1 1 
1 1 1 1 1 1 1 1 1 
1 1 1 1 1 1 1 1 1 
1 1 1 1 1 1 1 1 1 
1 1 1 1 1 1 1 1 1 
1 1 1 1 1 1 1 1 1 
1 1 1 1 1 1 1 1 1 
1 1 1 1 1 1 1 1 1 
1 1 1 1 1 1 1 1 1 
1 1 1 1 1 1 1 1 1 
1 1 1 1 1 1 1 1 1 
1 1 1 1 1 1 1 1 1 
1 1 1 1 1 1 1 1 1 
1 1 1 1 1 1 1 1 1 
1 1 1 1 1 1 1 1 1 
1 1 1 1 1 1 1 1 1 
1 1 1 1 1 1 1 1 1 
1 1 1 1 1 1 1 1 1 
1 1 1 1 1 1 1 1 1 
1 1 1 1 1 1 1 1 1 
1 1 1 1 1 1 1 1 1 
1 1 1 1 1 1 1 1 1 
1 1 1 1 1 1 1 1 1 
1 1 1 1 1 1 1 1 1 
1 1 1 1 1 1 1 1 1 
1 1 1 1 1 1 1 1 1 
1 1 1 1 1 1 1 1 1 
1 1 1 1 1 1 1 1 1 
1 1 1 1 1 1 1 1 1 
1 1 1 1 1 1 1 1 1 
1 1 1 1 1 1 1 1 1 
1 1 1 1 1 1 1 1 1 
1 1 1 1 1 1 1 1 1 
1 1 1 1 1 1 1 1 1 
1 1 1 1 1 1 1 1 1 
1 1 1 1 1 1 1 1 1 
1 1 1 1 1 1 1 1 1 
1 1 1 1 1 1 1 1 1 
1 1 1 1 1 1 1 1 1 
1 1 1 1 1 1 1 1 1 
1 1 1 1 1 1 1 1 1 
1 1 1 1 1 1 1 1 1 
1 1 1 1 1 1 1 1 1 
1 1 1 1 1 1 1 1 1 
1 1 1 1 1 1 1 1 1 
1 1 1 1 1 1 1 1 1 
1 1 1 1 1 1 1 1 1 
1 1 1 1 1 1 1 1 1 
1 1 1 1 1 1 1 1 1 
1 1 1 1 1 1 1 1 1 
1 1 1 1 1 1 1 1 1 
1 1 1 1 1 1 1 1 1 
1 1 1 1 1 1 1 1 1 
1 1 1 1 1 1 1 1 1 
1 1 1 1 1 1 1 1 1 
1 1 1 1 1 1 1 1 1 
1 1 1 1 1 1 1 1 1 
1 1 1 1 1 1 1 1 1 
1 1 1 1 1 1 1 1 1 
1 1 1 1 1 1 1 1 1 
1 1 1 1 1 1 1 1 1 
1 1 1 1 1 1 1 1 1 
1 1 1 1 1 1 1 1 1 
1 1 1 1 1 1 1 1 1 
1 1 1 1 1 1 1 1 1 
1 1 1 1 1 1 1 1 1 
1 1 1 1 1 1 1 1 1 
1 1 1 1 1 1 1 1 1 
1 1 1 1 1 1 1 1 1 
1 1 1 1 1 1 1 1 1 
1 1 1 1 1 1 1 1 1 
1 1 1 1 1 1 1 1 1 
1 1 1 1 1 1 1 1 1 
1 1 1 1 1 1 1 1 1 
1 1 1 1 1 1 1 1 1 
1 1 1 1 1 1 1 1 1 
1 1 1 1 1 1 1 1 1 
1 1 1 1 1 1 1 1 1 
1 1 1 1 1 1 1 1 1 
1 1 1 1 1 1 1 1 1 
1 1 1 1 1 1 1 1 1 
1 1 1 1 1 1 1 1 1 
1 1 1 1 1 1 1 1 1 
1 1 1 1 1 1 1 1 1 
1 1 1 1 1 1 1 1 1 
1 1 1 1 1 1 1 1 1 
1 1 1 1 1 1 1 1 1 
1 1 1 1 1 1 1 1 1 
1 1 1 1 1 1 1 1 1 
1 1 1 1 1 1 1 1 1 
1 1 1 1 1 1 1 1 1 
1 1 1 1 1 1 1 1 1 
1 1 1 1 1 1 1 1 1 
1 1 1 1 1 1 1 1 1 
1 1 1 1 1 1 1 1 1 
1 1 1 1 1 1 1 1 1 
1 1 1 1 1 1 1 1 1 
1 1 1 1 1 1 1 1 1 
1 1 1 1 1 1 1 1 1 
1 1 1 1 1 1 1 1 1 
1 1 1 1 1 1 1 1 1 
1 1 1 1 1 1 1 1 1 
1 1 1 1 1 1 1 1 1 
1 1 1 1 1 1 1 1 1 
1 1 1 1 1 1 1 1 1 
1 1 1 1 1 1 1 1 1 
1 1 1 1 1 1 1 1 1 
1 1 1 1 1 1 1 1 1 
1 1 1 1 1 1 1 1 1 
1 1 1 1 1 1 1 1 1 
1 1 1 1 1 1 1 1 1 
1 1 1 1 1 1 1 1 1 
1 1 1 1 1 1 1 1 1 
1 1 1 1 1 1 1 1 1 
1 1 1 1 1 1 1 1 1 
1 1 1 1 1 1 1 1 1 
1 1 1 1 1 1 1 1 1 
1 1 1 1 1 1 1 1 1 
1 1 1 1 1 1 1 1 1 
1 1 1 1 1 1 1 1 1 
1 1 1 1 1 1 1 1 1 
1 1 1 1 1 1 1 1 1 
1 1 1 1 1 1 1 1 1 
1 1 1 1 1 1 1 1 1 
1 1 1 1 1 1 1 1 1 
1 1 1 1 1 1 1 1 1 
1 1 1 1 1 1 1 1 1 
1 1 1 1 1 1 1 1 1 
1 1 1 1 1 1 1 1 1 
1 1 1 1 1 1 1 1 1 
1 1 1 1 1 1 1 1 1 
1 1 1 1 1 1 1 1 1 
1 1 1 1 1 1 1 1 1 
1 1 1 1 1 1 1 1 1 
1 1 1 1 1 1 1 1 1 
1 1 1 1 1 1 1 1 1 
1 1 1 1 1 1 1 1 1 
1 1 1 1 1 1 1 1 1 
1 1 1 1 1 1 1 1 1 
1 1 1 1 1 1 1 1 1 
1 1 1 1 1 1 1 1 1 
1 1 1 1 1 1 1 1 1 
1 1 1 1 1 1 1 1 1 
1 1 1 1 1 1 1 1 1 
1 1 1 1 1 1 1 1 1 
1 1 1 1 1 1 1 1 1 
1 1 1 1 1 1 1 1 1 
1 1 1 1 1 1 1 1 1 
1 1 1 1 1 1 1 1 1 
1 1 1 1 1 1 1 1 1 
1 1 1 1 1 1 1 1 1 
1 1 1 1 1 1 1 1 1 
1 1 1 1 1 1 1 1 1 
1 1 1 1 1 1 1 1 1 
1 1 1 1 1 1 1 1 1 
1 1 1 1 1 1 1 1 1 
1 1 1 1 1 1 1 1 1 
1 1 1 1 1 1 1 1 1 
1 1 1 1 1 1 1 1 1 
1 1 1 1 1 1 1 1 1 
1 1 1 1 1 1 1 1 1 
1 1 1 1 1 1 1 1 1 
1 1 1 1 1 1 1 1 1 
1 1 1 1 1 1 1 1 1 
1 1 1 1 1 1 1 1 1 
1 1 1 1 1 1 1 1 1 
1 1 1 1 1 1 1 1 1 
1 1 1 1 1 1 1 1 1 
1 1 1 1 1 1 1 1 1 
1 1 1 1 1 1 1 1 1 
1 1 1 1 1 1 1 1 1 
1 1 1 1 1 1 1 1 1 
1 1 1 1 1 1 1 1 1 
1 1 1 1 1 1 1 1 1 
1 1 1 1 1 1 1 1 1 
1 1 1 1 1 1 1 1 1 
1 1 1 1 1 1 1 1 1 
1 1 1 1 1 1 1 1 1 
1 1 1 1 1 1 1 1 1 
1 1 1 1 1 1 1 1 1 
1 1 1 1 1 1 1 1 1 
1 1 1 1 1 1 1 1 1 
1 1 1 1 1 1 1 1 1 
1 1 1 1 1 1 1 1 1 
1 
FIELD FieldData 1
GlobalElementID 1 6823 int
1 2 3 4 5 6 7 8 9 
10 11 12 13 14 15 16 17 18 
19 20 21 22 23 24 25 26 27 
28 29 30 31 32 33 34 35 36 
37 38 39 40 41 42 43 44 45 
46 47 48 49 50 51 52 53 54 
55 56 57 58 59 60 61 62 63 
64 65 66 67 68 69 70 71 72 
73 74 75 76 77 78 79 80 81 
82 83 84 85 86 87 88 89 90 
91 92 93 94 95 96 97 98 99 
100 101 102 103 104 105 106 107 108 
109 110 111 112 113 114 115 116 117 
118 119 120 121 122 123 124 125 126 
127 128 129 130 131 132 133 134 135 
136 137 138 139 140 141 142 143 144 
145 146 147 148 149 150 151 152 153 
154 155 156 157 158 159 160 161 162 
163 164 165 166 167 168 169 170 171 
172 173 174 175 176 177 178 179 180 
181 182 183 184 185 186 187 188 189 
190 191 192 193 194 195 196 197 198 
199 200 201 202 203 204 205 206 207 
208 209 210 211 212 213 214 215 216 
217 218 219 220 221 222 223 224 225 
226 227 228 229 230 231 232 233 234 
235 236 237 238 239 240 241 242 243 
244 245 246 247 248 249 250 251 252 
253 254 255 256 257 258 259 260 261 
262 263 264 265 266 267 268 269 270 
271 272 273 274 275 276 277 278 279 
280 281 282 283 284 285 286 287 288 
289 290 291 292 293 294 295 296 297 
298 299 300 301 302 303 304 305 306 
307 308 309 310 311 312 313 314 315 
316 317 318 319 320 321 322 323 324 
325 326 327 328 329 330 331 332 333 
334 335 336 337 338 339 340 341 342 
343 344 345 346 347 348 349 350 351 
352 353 354 355 356 357 358 359 360 
361 362 363 364 365 366 367 368 369 
370 371 372 373 374 375 376 377 378 
379 380 381 382 383 384 385 386 387 
388 389 390 391 392 393 394 395 396 
397 398 399 400 401 402 403 404 405 
406 407 408 409 410 411 412 413 414 
415 416 417 418 419 420 421 422 423 
424 425 426 427 428 429 430 431 432 
433 434 435 436 437 438 439 440 441 
442 443 444 445 446 447 448 449 450 
451 452 453 454 455 456 457 458 459 
460 461 462 463 464 465 466 467 468 
469 470 471 472 473 474 475 476 477 
478 479 480 481 482 483 484 485 486 
487 488 489 490 491 492 493 494 495 
496 497 498 499 500 501 502 503 504 
505 506 507 508 509 510 511 512 513 
514 515 516 517 518 519 520 521 522 
523 524 525 526 527 528 529 530 531 
532 533 534 535 536 537 538 539 540 
541 542 543 544 545 546 547 548 549 
550 551 552 553 554 555 556 557 558 
559 560 561 562 563 564 565 566 567 
568 569 570 571 572 573 574 575 576 
577 578 579 580 581 582 583 584 585 
586 587 588 589 590 591 592 593 594 
595 596 597 598 599 600 601 602 603 
604 605 606 607 608 609 610 611 612 
613 614 615 616 617 618 619 620 621 
622 623 624 625 626 627 628 629 630 
631 632 633 634 635 636 637 638 639 
640 641 642 643 644 645 646 647 648 
649 650 651 652 653 654 655 656 657 
658 659 660 661 662 663 664 665 666 
667 668 669 670 671 672 673 674 675 
676 677 678 679 680 681 682 683 684 
685 686 687 688 689 690 691 692 693 
694 695 696 697 698 699 700 701 702 
703 704 705 706 707 708 709 710 711 
712 713 714 715 716 717 718 719 720 
721 722 723 724 725 726 727 728 729 
730 731 732 733 734 735 736 737 738 
739 740 741 742 743 744 745 746 747 
748 749 750 751 752 753 754 755 756 
757 758 759 760 761 762 763 764 765 
766 767 768 769 770 771 772 773 774 
775 776 777 778 779 780 781 782 783 
784 785 786 787 788 789 790 791 792 
793 794 795 796 797 798 799 800 801 
802 803 804 805 806 807 808 809 810 
811 812 813 814 815 816 817 818 819 
820 821 822 823 824 825 826 827 828 
829 830 831 832 833 834 835 836 837 
838 839 840 841 842 843 844 845 846 
847 848 849 850 851 852 853 854 855 
856 857 858 859 860 861 862 863 864 
865 866 867 868 869 870 871 872 873 
874 875 876 877 878 879 880 881 882 
883 884 885 886 887 888 889 890 891 
892 893 894 895 896 897 898 899 900 
901 902 903 904 905 906 907 908 909 
910 911 912 913 914 915 916 917 918 
919 920 921 922 923 924 925 926 927 
928 929 930 931 932 933 934 935 936 
937 938 939 940 941 942 943 944 945 
946 947 948 949 950 951 952 953 954 
955 956 957 958 959 960 961 962 963 
964 965 966 967 968 969 970 971 972 
973 974 975 976 977 978 979 980 981 
982 983 984 985 986 987 988 989 990 
991 992 993 994 995 996 997 998 999 
1000 1001 1002 1003 1004 1005 1006 1007 1008 
1009 1010 1011 1012 1013 1014 1015 1016 1017 
1018 1019 1020 1021 1022 1023 1024 1025 1026 
1027 1028 1029 1030 1031 1032 1033 1034 1035 
1036 1037 1038 1039 1040 1041 1042 1043 1044 
1045 1046 1047 1048 1049 1050 1051 1052 1053 
1054 1055 1056 1057 1058 1059 1060 1061 1062 
1063 1064 1065 1066 1067 1068 1069 1070 1071 
1072 1073 1074 1075 1076 1077 1078 1079 1080 
1081 1082 1083 1084 1085 1086 1087 1088 1089 
1090 1091 1092 1093 1094 1095 1096 1097 1098 
1099 1100 1101 1102 1103 1104 1105 1106 1107 
1108 1109 1110 1111 1112 1113 1114 1115 1116 
1117 1118 1119 1120 1121 1122 1123 1124 1125 
1126 1127 1128 1129 1130 1131 1132 1133 1134 
1135 1136 1137 1138 1139 1140 1141 1142 1143 
1144 1145 1146 1147 1148 1149 1150 1151 1152 
1153 1154 1155 1156 1157 1158 1159 1160 1161 
1162 1163 1164 1165 1166 1167 1168 1169 1170 
1171 1172 1173 1174 1175 1176 1177 1178 1179 
1180 1181 1182 1183 1184 1185 1186 1187 1188 
1189 1190 1191 1192 1193 1194 1195 1196 1197 
1198 1199 1200 1201 1202 1203 1204 1205 1206 
1207 1208 1209 1210 1211 1212 1213 1214 1215 
1216 1217 1218 1219 1220 1221 1222 1223 1224 
1225 1226 1227 1228 1229 1230 1231 1232 1233 
1234 1235 1236 1237 1238 1239 1240 1241 1242 
1243 1244 1245 1246 1247 1248 1249 1250 1251 
1252 1253 1254 1255 1256 1257 1258 1259 1260 
1261 1262 1263 1264 1265 1266 1267 1268 1269 
1270 1271 1272 1273 1274 1275 1276 1277 1278 
1279 1280 1281 1282 1283 1284 1285 1286 1287 